ITEM: TIMESTEP
74000
ITEM: NUMBER OF SURFS
50
ITEM: BOX BOUNDS oo ro pp
-0.2 0.65
0 0.4
-0.5 0.5
ITEM: SURFS id f_88[*] 
1 37953.9 
5 35765.7 
9 29564.9 
13 23789.3 
17 16200.1 
21 10322.5 
25 5739.54 
29 3096.19 
33 1340.08 
37 617.039 
41 396.411 
45 407.168 
49 576.913 
2 39359.7 
6 37245.1 
10 28591.7 
14 21241.4 
18 14070.5 
22 8919.86 
26 4749.63 
30 2589.8 
34 1169.96 
38 506.47 
42 313.094 
46 379.384 
50 527.739 
3 38498.8 
7 34128.5 
11 26776 
15 19703.8 
19 12867.3 
23 7903.03 
27 3957.49 
31 1999.45 
35 898.517 
39 551.493 
43 324.081 
47 481.882 
4 38344.9 
8 31369.5 
12 25513.1 
16 18089.8 
20 11392.4 
24 6802.27 
28 3655.24 
32 1652.23 
36 685.788 
40 361.471 
44 390.198 
48 466.053 
