ITEM: TIMESTEP
37000
ITEM: NUMBER OF SURFS
50
ITEM: BOX BOUNDS oo ro pp
-0.2 0.65
0 0.4
-0.5 0.5
ITEM: SURFS id f_88[*] 
1 38897.7 
5 35999.9 
9 30225.6 
13 23094.3 
17 16117.6 
21 10123.8 
25 5713.32 
29 2917.96 
33 1526.08 
37 660.828 
41 247.316 
45 319.737 
49 272.579 
2 38827 
6 37018 
10 28394.3 
14 20978 
18 13831.2 
22 9176.98 
26 5144.46 
30 2627.78 
34 1277.58 
38 559.753 
42 191.999 
46 300.147 
50 394.228 
3 37857.3 
7 33119.1 
11 25945.4 
15 19748.4 
19 12309.4 
23 8023.3 
27 4181.14 
31 2483.58 
35 911.831 
39 430.2 
43 317.751 
47 309.241 
4 37011.2 
8 33077.2 
12 25153.9 
16 17952.9 
20 11687.5 
24 6789.72 
28 3302.34 
32 1635.83 
36 817.298 
40 288.109 
44 316.097 
48 429.309 
