ITEM: TIMESTEP
229000
ITEM: NUMBER OF SURFS
50
ITEM: BOX BOUNDS oo ro pp
-0.2 0.65
0 0.4
-0.5 0.5
ITEM: SURFS id f_88[*] 
1 39343.6 
5 35676.7 
9 30187.3 
13 22867.3 
17 14759.9 
21 10042.4 
25 5682.61 
29 3063.74 
33 1457.64 
37 732.309 
41 293.362 
45 412.252 
49 534.213 
2 36976.4 
6 34570.2 
10 28899 
14 20689.7 
18 14243.3 
22 8729.18 
26 5015.66 
30 2411.86 
34 1178.65 
38 598.444 
42 386.555 
46 554.42 
50 543.042 
3 38273.7 
7 33373.5 
11 26387.6 
15 19059.9 
19 12385.2 
23 7139.9 
27 4120.8 
31 2145.34 
35 846.924 
39 353.094 
43 401.135 
47 533.769 
4 38268.1 
8 31728.9 
12 25520.7 
16 17866.2 
20 11635.5 
24 6500.14 
28 3499.88 
32 1720.23 
36 668.94 
40 399.82 
44 374.682 
48 534.043 
