ITEM: TIMESTEP
79000
ITEM: NUMBER OF SURFS
50
ITEM: BOX BOUNDS oo ro pp
-0.2 0.65
0 0.4
-0.5 0.5
ITEM: SURFS id f_88[*] 
1 38179 
5 36171.2 
9 30249.3 
13 23961.3 
17 16308.6 
21 10156.8 
25 5555.53 
29 3103.51 
33 1432.54 
37 736.277 
41 270.174 
45 343.329 
49 534.19 
2 38539.6 
6 34915.3 
10 29709.2 
14 21634.4 
18 13984.2 
22 8827.98 
26 5009.02 
30 2476.54 
34 1101.41 
38 495.344 
42 374.138 
46 427.527 
50 539.303 
3 38552.9 
7 32950.8 
11 28203.4 
15 19436.5 
19 12884.1 
23 7451.87 
27 4212.28 
31 2305 
35 1062.88 
39 490.36 
43 399.866 
47 466.565 
4 36731 
8 31964.6 
12 25403.9 
16 18098.2 
20 10976.1 
24 6581.95 
28 3704.33 
32 1673.97 
36 887.945 
40 344.915 
44 320.633 
48 413.824 
