ITEM: TIMESTEP
60000
ITEM: NUMBER OF SURFS
50
ITEM: BOX BOUNDS oo ro pp
-0.2 0.65
0 0.4
-0.5 0.5
ITEM: SURFS id f_88[*] 
1 38630.6 
5 35681.1 
9 30062.2 
13 23857.4 
17 15592.7 
21 10211.9 
25 5587.34 
29 2940.14 
33 1417.01 
37 638.066 
41 269.686 
45 342.764 
49 526.273 
2 39677.8 
6 34386 
10 28824.7 
14 20931.8 
18 14198.7 
22 9252.71 
26 4748.12 
30 2759.36 
34 1131.87 
38 460.653 
42 335.153 
46 464.793 
50 593.106 
3 38127.2 
7 34064.2 
11 27364 
15 19896.6 
19 12523.8 
23 7827.33 
27 4030.28 
31 2106.04 
35 1072.64 
39 338.471 
43 251.824 
47 459.148 
4 38183 
8 33514.8 
12 24927.5 
16 18453.1 
20 11414.1 
24 6977.47 
28 3687.5 
32 1780.93 
36 760.712 
40 365.445 
44 322.092 
48 466.362 
