ITEM: TIMESTEP
8000
ITEM: NUMBER OF SURFS
50
ITEM: BOX BOUNDS oo ro pp
-0.2 0.65
0 0.4
-0.5 0.5
ITEM: SURFS id f_88[*] 
1 48372.6 
5 46486.4 
9 37247.6 
13 27589.8 
17 18840.7 
21 11580.1 
25 5818.06 
29 3187.12 
33 1416.13 
37 247.214 
41 11.1199 
45 0 
49 0 
2 49821.4 
6 46382.7 
10 35478.7 
14 25044.5 
18 16209.8 
22 10134.4 
26 5354.78 
30 2554.14 
34 1001.8 
38 270.047 
42 9.32974 
46 0 
50 0 
3 49623.8 
7 42997.9 
11 32837.8 
15 22433.5 
19 14082.3 
23 8381.39 
27 4673.65 
31 1905.63 
35 729.892 
39 101.112 
43 0 
47 0 
4 47853 
8 40739.2 
12 31766.6 
16 20979.6 
20 13020.6 
24 6742.16 
28 3597.05 
32 1671.95 
36 406.241 
40 59.2001 
44 0 
48 0 
