ITEM: TIMESTEP
135000
ITEM: NUMBER OF SURFS
50
ITEM: BOX BOUNDS oo ro pp
-0.2 0.65
0 0.4
-0.5 0.5
ITEM: SURFS id f_88[*] 
1 39275.1 
5 36033.5 
9 30002.2 
13 24258.2 
17 16337.3 
21 9459.51 
25 5480.81 
29 3025.49 
33 1367.59 
37 580.614 
41 263.141 
45 351.911 
49 575.555 
2 38732.5 
6 35244.1 
10 28927 
14 21758.6 
18 15145.8 
22 8858.33 
26 4799.48 
30 2640.57 
34 1136.07 
38 456.15 
42 302.374 
46 458.339 
50 617.758 
3 38188 
7 33967.1 
11 27402.5 
15 19185.8 
19 12988 
23 7617.3 
27 4324.34 
31 2121.81 
35 981.958 
39 561.066 
43 388.232 
47 460.19 
4 37633.9 
8 32361 
12 25942.7 
16 17314.8 
20 10941.4 
24 6725.86 
28 3378.66 
32 1565.99 
36 788.234 
40 395.149 
44 386.348 
48 592.983 
