ITEM: TIMESTEP
10000
ITEM: NUMBER OF SURFS
50
ITEM: BOX BOUNDS oo ro pp
-0.2 0.65
0 0.4
-0.5 0.5
ITEM: SURFS id f_88[*] 
1 46227.8 
5 44956 
9 35761.8 
13 26675.9 
17 17946.1 
21 10627.5 
25 5862.58 
29 3208.9 
33 1339.37 
37 399.811 
41 80.4864 
45 0 
49 0 
2 46743.2 
6 42863.2 
10 34860.7 
14 23423.4 
18 15688.5 
22 9678.63 
26 4759.16 
30 2678.25 
34 1114.21 
38 325.664 
42 8.74574 
46 0 
50 0 
3 46260.2 
7 41436.1 
11 31873.7 
15 21953.5 
19 14576.6 
23 7545.31 
27 4275.17 
31 2252.49 
35 770.755 
39 240.305 
43 2.01952 
47 0 
4 45149.2 
8 39244.1 
12 29252.1 
16 20284 
20 12006.2 
24 7114.69 
28 3623.28 
32 1864.75 
36 552.638 
40 174.025 
44 0 
48 0 
