ITEM: TIMESTEP
288000
ITEM: NUMBER OF SURFS
50
ITEM: BOX BOUNDS oo ro pp
-0.2 0.65
0 0.4
-0.5 0.5
ITEM: SURFS id f_88[*] 
1 36890 
5 36396.9 
9 30675.8 
13 22960.6 
17 15572.2 
21 9965.43 
25 5645.55 
29 3234.57 
33 1407.4 
37 669.228 
41 294.512 
45 384.443 
49 530.346 
2 37060.1 
6 34459.3 
10 28695.7 
14 20949.2 
18 13972 
22 8754.02 
26 4599.03 
30 2186.82 
34 1069.16 
38 549.05 
42 341.308 
46 493.226 
50 592.692 
3 38344.6 
7 33134.5 
11 26512.4 
15 18780.6 
19 12219.4 
23 7264.58 
27 4235.64 
31 1823.16 
35 949.664 
39 419.095 
43 308.863 
47 543.241 
4 37963.8 
8 31614.9 
12 25305.3 
16 17704.3 
20 11033.8 
24 6311.82 
28 3561.34 
32 1813 
36 753.589 
40 342.496 
44 432.494 
48 459.335 
