ITEM: TIMESTEP
38000
ITEM: NUMBER OF SURFS
50
ITEM: BOX BOUNDS oo ro pp
-0.2 0.65
0 0.4
-0.5 0.5
ITEM: SURFS id f_88[*] 
1 39558.1 
5 36492.2 
9 31578.5 
13 23263.4 
17 16071.1 
21 9748.12 
25 5665.12 
29 3257.72 
33 1258.4 
37 658.159 
41 379.565 
45 262.28 
49 390.418 
2 39732 
6 34731.7 
10 28592.9 
14 21696.4 
18 14690.5 
22 8886.28 
26 5019.34 
30 2449.23 
34 1111.03 
38 525.688 
42 352.772 
46 288.315 
50 416.724 
3 37603.2 
7 35001.8 
11 26731.1 
15 19741 
19 12934.2 
23 7653.03 
27 4275.91 
31 2061.34 
35 991.728 
39 306.794 
43 228.551 
47 284.67 
4 36952 
8 32241.5 
12 25842.4 
16 18110.5 
20 11251.3 
24 6759.81 
28 3049.88 
32 1847.27 
36 740.649 
40 316.802 
44 288.29 
48 352.401 
