ITEM: TIMESTEP
51000
ITEM: NUMBER OF SURFS
50
ITEM: BOX BOUNDS oo ro pp
-0.2 0.65
0 0.4
-0.5 0.5
ITEM: SURFS id f_88[*] 
1 39924 
5 35849.4 
9 30584.7 
13 23187.3 
17 15430.4 
21 10070.8 
25 5356.18 
29 2920.8 
33 1628.37 
37 697.458 
41 352.242 
45 417.726 
49 423.721 
2 40683.8 
6 35118.6 
10 28641.8 
14 22293.1 
18 13779.9 
22 8815.68 
26 4769.77 
30 2453.33 
34 1310.92 
38 545.874 
42 321.165 
46 455.073 
50 552.055 
3 38421.2 
7 34236.9 
11 26800 
15 19868.7 
19 13319.6 
23 7791.54 
27 4251.36 
31 2316.22 
35 887.223 
39 338.91 
43 320.196 
47 410.389 
4 36418.5 
8 32523.9 
12 24432.3 
16 18076.6 
20 11276 
24 6987.83 
28 3559.84 
32 1831.02 
36 899.571 
40 311.362 
44 327.365 
48 426.768 
