ITEM: TIMESTEP
92000
ITEM: NUMBER OF SURFS
50
ITEM: BOX BOUNDS oo ro pp
-0.2 0.65
0 0.4
-0.5 0.5
ITEM: SURFS id f_88[*] 
1 38984 
5 36627.8 
9 31567.7 
13 23171.5 
17 16136.2 
21 9799.51 
25 5816.25 
29 3018.96 
33 1495.5 
37 673.319 
41 293.77 
45 412.748 
49 529.218 
2 39067.8 
6 35928.5 
10 29303.6 
14 21603.5 
18 14453.3 
22 8871.8 
26 4991.18 
30 2472.83 
34 1104.16 
38 568.135 
42 293.11 
46 451.146 
50 550.001 
3 39337 
7 33729 
11 27809.1 
15 19581.4 
19 12585.1 
23 7789.52 
27 4199.41 
31 2094.35 
35 981.156 
39 448.583 
43 317.543 
47 507.825 
4 36966.9 
8 32939.9 
12 24666 
16 17062.8 
20 10686.5 
24 6869.85 
28 3368.31 
32 1683.58 
36 818.916 
40 458.528 
44 379.361 
48 483.619 
