ITEM: TIMESTEP
59000
ITEM: NUMBER OF SURFS
50
ITEM: BOX BOUNDS oo ro pp
-0.2 0.65
0 0.4
-0.5 0.5
ITEM: SURFS id f_88[*] 
1 37842.5 
5 35478.1 
9 31204.4 
13 23784.1 
17 15572.9 
21 10445.2 
25 5579.19 
29 2905.27 
33 1462.74 
37 614.498 
41 270.935 
45 398.924 
49 489.746 
2 38814 
6 34043.6 
10 28932.2 
14 21368.2 
18 14616.2 
22 9012.03 
26 5085.05 
30 2481.75 
34 1330.07 
38 559.822 
42 266.179 
46 499.224 
50 572.875 
3 37355.7 
7 34000.9 
11 27732.2 
15 19513.7 
19 13027.3 
23 7729.97 
27 4456.86 
31 2244.17 
35 927.043 
39 517.338 
43 313.195 
47 452.705 
4 37728.9 
8 32840.7 
12 24834.2 
16 17834.6 
20 11279.1 
24 6395.8 
28 3582.46 
32 1668.14 
36 884.177 
40 478.886 
44 383.675 
48 514.323 
