ITEM: TIMESTEP
175000
ITEM: NUMBER OF SURFS
50
ITEM: BOX BOUNDS oo ro pp
-0.2 0.65
0 0.4
-0.5 0.5
ITEM: SURFS id f_88[*] 
1 38539.7 
5 36344.8 
9 30340.8 
13 23013.4 
17 16095.8 
21 9610.14 
25 5609.11 
29 3114.08 
33 1399.59 
37 622.333 
41 355.739 
45 314.381 
49 582.78 
2 38295.2 
6 35037.2 
10 28553.4 
14 21574.7 
18 14236.4 
22 8428.94 
26 5053.75 
30 2312.7 
34 1048.93 
38 425.491 
42 357.675 
46 519.659 
50 614.166 
3 37132.6 
7 33751.2 
11 26577.3 
15 19768.2 
19 12826.7 
23 7887.17 
27 4140.99 
31 1979.41 
35 998.879 
39 423.957 
43 365.503 
47 539.26 
4 36519.5 
8 31259.5 
12 25249.2 
16 17939.3 
20 11742.9 
24 6546.41 
28 3504.68 
32 1539.07 
36 848.33 
40 321.145 
44 382.242 
48 590.415 
