ITEM: TIMESTEP
110000
ITEM: NUMBER OF SURFS
50
ITEM: BOX BOUNDS oo ro pp
-0.2 0.65
0 0.4
-0.5 0.5
ITEM: SURFS id f_88[*] 
1 39380.6 
5 35444.2 
9 29230.2 
13 24116.2 
17 16329.1 
21 10064.3 
25 5294.63 
29 2973.08 
33 1499.16 
37 646.853 
41 297.682 
45 496.29 
49 475.99 
2 37800.9 
6 34745.4 
10 28701.6 
14 21987.8 
18 15126.8 
22 8731.66 
26 4870.72 
30 2382.27 
34 1175.77 
38 493.746 
42 340.346 
46 472.741 
50 498.293 
3 39664.1 
7 33982.2 
11 27247.9 
15 20384.4 
19 13664.7 
23 7699.36 
27 4516.57 
31 2050.14 
35 969.034 
39 395.71 
43 425.142 
47 518.129 
4 37888.1 
8 31317.2 
12 25652.7 
16 17777.9 
20 10767 
24 6708.04 
28 3488.75 
32 1754.43 
36 794.975 
40 335.982 
44 241.56 
48 543.213 
