ITEM: TIMESTEP
294000
ITEM: NUMBER OF SURFS
50
ITEM: BOX BOUNDS oo ro pp
-0.2 0.65
0 0.4
-0.5 0.5
ITEM: SURFS id f_88[*] 
1 38438.4 
5 35763.6 
9 31012.7 
13 23175.9 
17 15354.2 
21 9562.03 
25 5405.62 
29 2714.1 
33 1330.44 
37 661.355 
41 321.61 
45 403.57 
49 650.914 
2 36590.9 
6 33771.1 
10 29423.4 
14 21121.2 
18 14434.3 
22 8451.87 
26 4873.13 
30 2436.45 
34 1394.71 
38 518.724 
42 303.177 
46 471.808 
50 602.482 
3 37883.7 
7 33689.6 
11 26856.6 
15 19127.6 
19 12354.2 
23 7605.12 
27 4200.02 
31 2268.76 
35 1005.07 
39 373.103 
43 284.322 
47 566.391 
4 36526.1 
8 31789.6 
12 25085.7 
16 17556.8 
20 10990.6 
24 6487.21 
28 3510.67 
32 1781.28 
36 752.749 
40 374.876 
44 375.62 
48 492.779 
