ITEM: TIMESTEP
128000
ITEM: NUMBER OF SURFS
50
ITEM: BOX BOUNDS oo ro pp
-0.2 0.65
0 0.4
-0.5 0.5
ITEM: SURFS id f_88[*] 
1 37661.8 
5 36157.9 
9 31509 
13 23657.4 
17 16188.1 
21 10224.1 
25 6004.66 
29 3129.88 
33 1299.94 
37 682.202 
41 340.167 
45 398.995 
49 484.115 
2 39053.1 
6 34206.9 
10 27852 
14 21698.3 
18 13972.4 
22 8314.09 
26 4962.17 
30 2589.72 
34 1082 
38 550.218 
42 409.636 
46 457.245 
50 565.875 
3 37267.8 
7 32998.2 
11 27135 
15 19818.3 
19 12918.3 
23 7329.36 
27 4105 
31 2146.52 
35 980.675 
39 378.541 
43 285.634 
47 447.498 
4 38449 
8 32769.6 
12 25301.4 
16 17510.1 
20 11314.1 
24 6687.59 
28 3769.48 
32 1530.42 
36 830.174 
40 291.359 
44 264.873 
48 573.344 
