ITEM: TIMESTEP
69000
ITEM: NUMBER OF SURFS
50
ITEM: BOX BOUNDS oo ro pp
-0.2 0.65
0 0.4
-0.5 0.5
ITEM: SURFS id f_88[*] 
1 37436.1 
5 37055.3 
9 30817.9 
13 22795.8 
17 15639.4 
21 10094.9 
25 5956.78 
29 2849.91 
33 1510.81 
37 739.063 
41 386.947 
45 401.848 
49 539.345 
2 38382.9 
6 35000.6 
10 29900.5 
14 21262.1 
18 14545.3 
22 8349.13 
26 4925.5 
30 2407.78 
34 1200.87 
38 490.423 
42 379.922 
46 398.876 
50 615.564 
3 38600.8 
7 34919 
11 26732.9 
15 20093.8 
19 12497.3 
23 8002 
27 4247.62 
31 2361.92 
35 1015.94 
39 468.295 
43 314.263 
47 484.221 
4 36606.5 
8 32022.5 
12 25946.2 
16 18525.7 
20 11560.4 
24 6567.98 
28 3591.92 
32 1815.81 
36 669.145 
40 370.345 
44 295.242 
48 521.746 
