ITEM: TIMESTEP
254000
ITEM: NUMBER OF SURFS
50
ITEM: BOX BOUNDS oo ro pp
-0.2 0.65
0 0.4
-0.5 0.5
ITEM: SURFS id f_88[*] 
1 39023.1 
5 36342.3 
9 30009.8 
13 23033.3 
17 16741.5 
21 10308.1 
25 5568.07 
29 3116.24 
33 1396.29 
37 611.18 
41 279.357 
45 438.54 
49 545.627 
2 39111.2 
6 33897.7 
10 29069.3 
14 21724.5 
18 14096.3 
22 9319.71 
26 4759.59 
30 2711.56 
34 1169.89 
38 531.018 
42 278.237 
46 434.658 
50 611.596 
3 38448.2 
7 33346.1 
11 26676.1 
15 19700.1 
19 12507.9 
23 8076.99 
27 4077.52 
31 1992.57 
35 926.086 
39 391.363 
43 358.053 
47 436.004 
4 37292.9 
8 31186.3 
12 24859.7 
16 16790.4 
20 10666.4 
24 6719.19 
28 3482.31 
32 1771.8 
36 852.089 
40 438.273 
44 414.729 
48 545.64 
