ITEM: TIMESTEP
276000
ITEM: NUMBER OF SURFS
50
ITEM: BOX BOUNDS oo ro pp
-0.2 0.65
0 0.4
-0.5 0.5
ITEM: SURFS id f_88[*] 
1 38265.8 
5 35638.2 
9 31430.3 
13 22761.1 
17 15874.2 
21 10123.2 
25 5461.72 
29 3003.29 
33 1287.06 
37 741.608 
41 420.497 
45 436.115 
49 557.352 
2 37873.3 
6 34986.9 
10 28355.7 
14 21363.8 
18 14546.1 
22 8668.59 
26 5006.75 
30 2270.14 
34 1181.42 
38 529.891 
42 380.623 
46 422.628 
50 546.985 
3 38103.6 
7 32524.8 
11 26999.5 
15 18509.9 
19 12491.9 
23 7142.89 
27 4422.3 
31 1981.04 
35 915.79 
39 512.402 
43 427.971 
47 473.648 
4 36267.5 
8 31999.6 
12 25599 
16 17387.5 
20 11721 
24 6872.22 
28 3484.65 
32 1652.75 
36 675.298 
40 325.875 
44 391.657 
48 571.603 
