ITEM: TIMESTEP
49000
ITEM: NUMBER OF SURFS
50
ITEM: BOX BOUNDS oo ro pp
-0.2 0.65
0 0.4
-0.5 0.5
ITEM: SURFS id f_88[*] 
1 38483 
5 35819.6 
9 31084.2 
13 23624.8 
17 16697.2 
21 9821.24 
25 5722.66 
29 3049.77 
33 1438.66 
37 589.558 
41 376.41 
45 355.39 
49 446.621 
2 39201.3 
6 35544.9 
10 28491.5 
14 21237.6 
18 15009.5 
22 8739.02 
26 5028.7 
30 2530.56 
34 1022.1 
38 476.733 
42 285.1 
46 407.098 
50 465.884 
3 36375.2 
7 33400.4 
11 27323.6 
15 19949.5 
19 13159.6 
23 7608.98 
27 4246.74 
31 2094.66 
35 920.069 
39 430.161 
43 268.784 
47 457.658 
4 37460 
8 32342.1 
12 25771.8 
16 18312.1 
20 11144.4 
24 7394.78 
28 3849.95 
32 1856.86 
36 763.723 
40 400.161 
44 288.773 
48 401.595 
