ITEM: TIMESTEP
239000
ITEM: NUMBER OF SURFS
50
ITEM: BOX BOUNDS oo ro pp
-0.2 0.65
0 0.4
-0.5 0.5
ITEM: SURFS id f_88[*] 
1 39972 
5 36783.3 
9 29454.6 
13 22700.1 
17 15724.5 
21 10089.6 
25 5477.05 
29 2955.03 
33 1389.52 
37 617.301 
41 293.671 
45 402.422 
49 473.076 
2 38311.3 
6 34369.9 
10 29146.2 
14 21759.1 
18 14265.3 
22 8785.54 
26 4726.78 
30 2356.99 
34 1203.22 
38 613.329 
42 346.255 
46 414.272 
50 588.401 
3 37730.1 
7 33173.8 
11 26269.3 
15 19062.1 
19 12594.8 
23 7716.64 
27 4164.13 
31 1991.61 
35 935.386 
39 392.034 
43 356.064 
47 495.409 
4 37463.4 
8 31599.3 
12 25021.6 
16 18087.3 
20 11213.8 
24 6467.51 
28 3477.06 
32 1844.05 
36 806.173 
40 333.042 
44 401.506 
48 546.173 
