ITEM: TIMESTEP
180000
ITEM: NUMBER OF SURFS
50
ITEM: BOX BOUNDS oo ro pp
-0.2 0.65
0 0.4
-0.5 0.5
ITEM: SURFS id f_88[*] 
1 38126 
5 35887 
9 28900.7 
13 22551.4 
17 15490 
21 9656.87 
25 5768.34 
29 2956.53 
33 1579.14 
37 641.058 
41 337.195 
45 434.427 
49 511.077 
2 37946.5 
6 34981.2 
10 28185 
14 20355 
18 14569.2 
22 8462.46 
26 5116.2 
30 2559.1 
34 1044.33 
38 550.357 
42 299.381 
46 476.261 
50 468.1 
3 39058.3 
7 33657.2 
11 26856.5 
15 18343.9 
19 13286 
23 7680.98 
27 4354.29 
31 2089.19 
35 951.059 
39 363.913 
43 363.218 
47 467.357 
4 36059.1 
8 31310.5 
12 24710.7 
16 18272 
20 11589.9 
24 6529.22 
28 3719.35 
32 1695.11 
36 834.188 
40 430.313 
44 353.469 
48 476.876 
