ITEM: TIMESTEP
167000
ITEM: NUMBER OF SURFS
50
ITEM: BOX BOUNDS oo ro pp
-0.2 0.65
0 0.4
-0.5 0.5
ITEM: SURFS id f_88[*] 
1 39095.1 
5 34174 
9 30397.3 
13 22883.6 
17 15795.9 
21 9817.24 
25 5602.23 
29 2793.49 
33 1269.72 
37 516.38 
41 312.805 
45 438.293 
49 603.266 
2 38169.3 
6 35347.6 
10 28300.5 
14 20664.8 
18 14136 
22 8968.86 
26 4979.13 
30 2376.84 
34 1079.41 
38 510.757 
42 334.126 
46 415.482 
50 534.785 
3 38428.1 
7 33704.7 
11 26136.8 
15 19354.1 
19 12442.6 
23 7766.62 
27 4066.33 
31 1914.13 
35 1044 
39 403.77 
43 346.288 
47 508.937 
4 37385.5 
8 31878.9 
12 24622.3 
16 17401.3 
20 10912.2 
24 6293.78 
28 3499.13 
32 1799.36 
36 732.441 
40 370.246 
44 363.309 
48 493.449 
