ITEM: TIMESTEP
166000
ITEM: NUMBER OF SURFS
50
ITEM: BOX BOUNDS oo ro pp
-0.2 0.65
0 0.4
-0.5 0.5
ITEM: SURFS id f_88[*] 
1 38704.4 
5 36674.7 
9 29770.8 
13 22472.3 
17 15267.7 
21 9835.17 
25 5742.87 
29 2966.53 
33 1497.7 
37 695.242 
41 364.389 
45 498.095 
49 498.01 
2 38191.3 
6 35257 
10 28236.1 
14 21230.1 
18 14414.9 
22 9024.33 
26 4957.75 
30 2365.97 
34 1288.8 
38 386.867 
42 349.629 
46 393.74 
50 526.57 
3 37250 
7 32925.2 
11 26771.6 
15 18963.3 
19 12857.2 
23 7634.67 
27 4448.5 
31 2100.71 
35 974.516 
39 422.052 
43 291.584 
47 462.434 
4 35881.9 
8 31945.4 
12 24820.1 
16 17131 
20 11572.1 
24 6447.99 
28 3574.98 
32 1714.91 
36 782.42 
40 344.77 
44 353.112 
48 550.718 
