ITEM: TIMESTEP
113000
ITEM: NUMBER OF SURFS
50
ITEM: BOX BOUNDS oo ro pp
-0.2 0.65
0 0.4
-0.5 0.5
ITEM: SURFS id f_88[*] 
1 38583.2 
5 36093.7 
9 30050.5 
13 23490.1 
17 15936.6 
21 10464.2 
25 5264.63 
29 3029.14 
33 1270.12 
37 512.826 
41 367.139 
45 509.915 
49 565.292 
2 39010.1 
6 35445.2 
10 28044.1 
14 21849.4 
18 14390.5 
22 8434.92 
26 5043.14 
30 2697.44 
34 1203.06 
38 476.381 
42 336.678 
46 489.533 
50 579.037 
3 37846.7 
7 33755.6 
11 28028.2 
15 19721.2 
19 13375.3 
23 7519.56 
27 4137.32 
31 2007.1 
35 1006.2 
39 347.409 
43 326.428 
47 440.818 
4 37853.1 
8 32051.5 
12 25050 
16 18622.3 
20 11693.6 
24 6510.52 
28 3487.31 
32 1752.29 
36 728.926 
40 325.383 
44 383.305 
48 505.932 
