ITEM: TIMESTEP
152000
ITEM: NUMBER OF SURFS
50
ITEM: BOX BOUNDS oo ro pp
-0.2 0.65
0 0.4
-0.5 0.5
ITEM: SURFS id f_88[*] 
1 37838.8 
5 36103.1 
9 29064.9 
13 22251.5 
17 16111.3 
21 10118.3 
25 5873.65 
29 2770.11 
33 1367.76 
37 674.721 
41 368.375 
45 456.445 
49 484.516 
2 37823.4 
6 34503.7 
10 28118.7 
14 20649.3 
18 14559.3 
22 8741.44 
26 4917.68 
30 2517 
34 1342.82 
38 566.937 
42 326.162 
46 443.804 
50 581.666 
3 37934 
7 33030.8 
11 26109.7 
15 19752.5 
19 12356.9 
23 7238.83 
27 4088.57 
31 1966.43 
35 954.961 
39 386.124 
43 355.717 
47 390.001 
4 37021.4 
8 31078.1 
12 24322.6 
16 17340 
20 11248 
24 6508.72 
28 3307.77 
32 1697.25 
36 761.004 
40 356.584 
44 376.493 
48 518.18 
