ITEM: TIMESTEP
170000
ITEM: NUMBER OF SURFS
50
ITEM: BOX BOUNDS oo ro pp
-0.2 0.65
0 0.4
-0.5 0.5
ITEM: SURFS id f_88[*] 
1 37325.1 
5 35166.8 
9 30861.4 
13 23099.5 
17 15738.7 
21 10183.1 
25 5796.88 
29 2916.72 
33 1431.68 
37 714.776 
41 413.547 
45 377.219 
49 507.049 
2 37691 
6 34756.5 
10 28946.2 
14 21356.3 
18 14225.2 
22 8648.67 
26 5029.2 
30 2639.84 
34 1003.17 
38 510.512 
42 335.542 
46 477.988 
50 583.443 
3 37365.2 
7 33286.7 
11 26096.3 
15 19311.7 
19 12825.5 
23 7697.08 
27 3905.55 
31 1966.71 
35 893.389 
39 538.363 
43 366.601 
47 425.674 
4 35752 
8 33067.4 
12 24453.2 
16 17211.9 
20 11046.2 
24 6310.58 
28 3086.31 
32 1817.53 
36 687.455 
40 360.012 
44 406.583 
48 531.405 
