ITEM: TIMESTEP
177000
ITEM: NUMBER OF SURFS
50
ITEM: BOX BOUNDS oo ro pp
-0.2 0.65
0 0.4
-0.5 0.5
ITEM: SURFS id f_88[*] 
1 38162 
5 35658.9 
9 29291.9 
13 22707.4 
17 15789.4 
21 10173.2 
25 5836.48 
29 2803.12 
33 1430.63 
37 594.474 
41 305.731 
45 353.979 
49 454.18 
2 39995 
6 35383.3 
10 27776.4 
14 21626.9 
18 14099.1 
22 8826.33 
26 5073.35 
30 2388.58 
34 1155.53 
38 531.287 
42 266.765 
46 496.48 
50 570.273 
3 38238.3 
7 33483.7 
11 27477 
15 20296.7 
19 12521.9 
23 7756.1 
27 4113.47 
31 1871.22 
35 918.749 
39 355.578 
43 405.571 
47 442.852 
4 36174.4 
8 31676.7 
12 24898.1 
16 17438.3 
20 11377.1 
24 6969.08 
28 3716.62 
32 1910.1 
36 789.929 
40 354.186 
44 466.894 
48 511.568 
