ITEM: TIMESTEP
216000
ITEM: NUMBER OF SURFS
50
ITEM: BOX BOUNDS oo ro pp
-0.2 0.65
0 0.4
-0.5 0.5
ITEM: SURFS id f_88[*] 
1 37955.7 
5 36532.7 
9 29651.5 
13 22324.4 
17 15750.5 
21 9316.9 
25 5705.01 
29 3092.82 
33 1427.32 
37 569.035 
41 355.356 
45 458.961 
49 594.491 
2 37896.7 
6 35426.4 
10 27795.7 
14 21189.5 
18 14060.5 
22 8619.89 
26 4582.78 
30 2384.58 
34 1264.13 
38 476.297 
42 316.431 
46 421.975 
50 515.472 
3 37371.9 
7 33115.6 
11 27296.1 
15 19492.9 
19 13125.9 
23 7449.77 
27 4228.97 
31 2268.01 
35 1000.29 
39 452.242 
43 297.874 
47 494.952 
4 37277.3 
8 32113.4 
12 25009.7 
16 18114.8 
20 10821.2 
24 6630.22 
28 3642.55 
32 1606.38 
36 760.241 
40 499.618 
44 362.151 
48 526.872 
