ITEM: TIMESTEP
57000
ITEM: NUMBER OF SURFS
50
ITEM: BOX BOUNDS oo ro pp
-0.2 0.65
0 0.4
-0.5 0.5
ITEM: SURFS id f_88[*] 
1 39296.8 
5 36493.4 
9 30961.9 
13 23476.4 
17 16620.2 
21 10310.6 
25 5572.22 
29 2932.02 
33 1545.3 
37 622.758 
41 395.563 
45 279.772 
49 512.61 
2 37000.4 
6 36619.9 
10 29741.9 
14 21932.1 
18 14347.4 
22 8734.74 
26 4535.59 
30 2581.67 
34 1269.25 
38 407.531 
42 278.589 
46 380.43 
50 401.638 
3 38191.7 
7 33658.7 
11 27087.4 
15 19489.4 
19 12828.3 
23 7633.19 
27 4117.32 
31 1831.05 
35 1036.21 
39 475.426 
43 387.588 
47 433.356 
4 37973.1 
8 31717.5 
12 24919.7 
16 17155.3 
20 11851.6 
24 6941.26 
28 3298.97 
32 1890.54 
36 730.314 
40 345.857 
44 249.766 
48 512.997 
