ITEM: TIMESTEP
185000
ITEM: NUMBER OF SURFS
50
ITEM: BOX BOUNDS oo ro pp
-0.2 0.65
0 0.4
-0.5 0.5
ITEM: SURFS id f_88[*] 
1 37962.1 
5 37367.9 
9 30045.8 
13 22813.7 
17 15838.7 
21 10268.7 
25 5535.46 
29 2967.46 
33 1386.51 
37 660.884 
41 356.287 
45 417.912 
49 586.594 
2 37871.5 
6 35188 
10 27484.6 
14 20393.4 
18 13872.4 
22 8806.63 
26 4840.56 
30 2499.95 
34 1260.21 
38 440.317 
42 319.135 
46 469.396 
50 615.414 
3 37718.6 
7 32532.4 
11 26872.3 
15 20074.1 
19 12524.2 
23 7403.63 
27 4230.47 
31 1972.29 
35 993.14 
39 261.472 
43 370.393 
47 578.661 
4 35579.1 
8 31719.1 
12 24884.6 
16 17664 
20 11604.2 
24 6472.46 
28 3560.47 
32 1725.33 
36 689.126 
40 507.4 
44 380.543 
48 572.563 
