ITEM: TIMESTEP
246000
ITEM: NUMBER OF SURFS
50
ITEM: BOX BOUNDS oo ro pp
-0.2 0.65
0 0.4
-0.5 0.5
ITEM: SURFS id f_88[*] 
1 39360.4 
5 34191 
9 30038.6 
13 22550.4 
17 16281.5 
21 9995.9 
25 5377.24 
29 3033.27 
33 1431.76 
37 785.48 
41 400.714 
45 401.927 
49 636.698 
2 38077.4 
6 34845.6 
10 28248.4 
14 21497.9 
18 13820.6 
22 8333.87 
26 4732.27 
30 2478.15 
34 1292.79 
38 660.78 
42 307.886 
46 476.163 
50 504.34 
3 38382.6 
7 33357 
11 27316.7 
15 18862.7 
19 13036.2 
23 7866.47 
27 4409.56 
31 2104.56 
35 1041.33 
39 408.147 
43 367.968 
47 514.303 
4 37024.7 
8 30816.1 
12 25295 
16 17058.3 
20 11367.9 
24 6954.27 
28 3339 
32 1850.07 
36 864.941 
40 394.664 
44 391.132 
48 439.492 
