ITEM: TIMESTEP
267000
ITEM: NUMBER OF SURFS
50
ITEM: BOX BOUNDS oo ro pp
-0.2 0.65
0 0.4
-0.5 0.5
ITEM: SURFS id f_88[*] 
1 37561.2 
5 36260.5 
9 31175.3 
13 22959.2 
17 15315.2 
21 9648.85 
25 5846.5 
29 2726.12 
33 1459.47 
37 649.521 
41 262.687 
45 418.606 
49 511.37 
2 38769.4 
6 35008.1 
10 28476.8 
14 20877.7 
18 13694.9 
22 8813.04 
26 4941.84 
30 2398.61 
34 1147.69 
38 448.398 
42 314.14 
46 434.296 
50 550.363 
3 38335.6 
7 33620.9 
11 27021.1 
15 19364.9 
19 12538.8 
23 7660.03 
27 3968.1 
31 2264.51 
35 922.423 
39 434.725 
43 324.221 
47 481.823 
4 37316.9 
8 32629.2 
12 24744.3 
16 17324 
20 11205.2 
24 6803.65 
28 3767.54 
32 1587.33 
36 680.256 
40 416.481 
44 339.709 
48 434.394 
