ITEM: TIMESTEP
162000
ITEM: NUMBER OF SURFS
50
ITEM: BOX BOUNDS oo ro pp
-0.2 0.65
0 0.4
-0.5 0.5
ITEM: SURFS id f_88[*] 
1 37972.2 
5 35889.9 
9 29741.7 
13 22976.5 
17 15712 
21 9291.86 
25 5815.67 
29 2811.74 
33 1633.41 
37 579.884 
41 255.497 
45 424.525 
49 570.441 
2 38680.6 
6 34306 
10 28907.9 
14 21753.4 
18 14742.8 
22 8142.79 
26 4812.87 
30 2528.95 
34 1220.08 
38 605.038 
42 328.225 
46 458.662 
50 571.268 
3 37327.6 
7 33154.6 
11 26918.7 
15 19228.4 
19 12605.1 
23 7344.77 
27 4382.62 
31 2372.41 
35 834.59 
39 450.023 
43 285.6 
47 509.605 
4 37084.3 
8 30905.3 
12 24978.3 
16 17491.2 
20 11405.3 
24 6427.83 
28 3388.8 
32 1660.94 
36 720.933 
40 256.242 
44 447.398 
48 526.005 
