ITEM: TIMESTEP
94000
ITEM: NUMBER OF SURFS
50
ITEM: BOX BOUNDS oo ro pp
-0.2 0.65
0 0.4
-0.5 0.5
ITEM: SURFS id f_88[*] 
1 37935.1 
5 36282.2 
9 31584.8 
13 23607.5 
17 16405.1 
21 9954.81 
25 5637.16 
29 2778.28 
33 1401.49 
37 633.934 
41 314.855 
45 601.107 
49 614.149 
2 38874.8 
6 34806.7 
10 28872.7 
14 21712.5 
18 15011 
22 8716.55 
26 4653.06 
30 2542.8 
34 1134.15 
38 581.998 
42 240.834 
46 407.309 
50 523.047 
3 38418.5 
7 34603.1 
11 26780.2 
15 19363.8 
19 13386 
23 7621.35 
27 4076.92 
31 2175.78 
35 883.065 
39 428.54 
43 375.566 
47 427.247 
4 35714.7 
8 31963.9 
12 25131.2 
16 17400.8 
20 11328.9 
24 6635.92 
28 3612.06 
32 1792.73 
36 871.459 
40 385.407 
44 406.023 
48 735.769 
