ITEM: TIMESTEP
65000
ITEM: NUMBER OF SURFS
50
ITEM: BOX BOUNDS oo ro pp
-0.2 0.65
0 0.4
-0.5 0.5
ITEM: SURFS id f_88[*] 
1 38240.3 
5 36976.5 
9 29996 
13 23979.1 
17 16239.8 
21 10258.3 
25 5852.28 
29 2683.42 
33 1292.38 
37 693.526 
41 370.641 
45 429.806 
49 501.374 
2 37934.8 
6 35240.1 
10 28246.6 
14 21502.4 
18 14268.6 
22 8786.17 
26 4741.8 
30 2516.19 
34 1285.32 
38 475.377 
42 362.842 
46 364.13 
50 475.134 
3 38430.2 
7 34312.2 
11 26327.6 
15 20355.4 
19 12983 
23 8109.85 
27 4276.01 
31 2142.83 
35 1066.36 
39 478.846 
43 350.903 
47 402.375 
4 37815.3 
8 31603.1 
12 25942 
16 17028.8 
20 11690.6 
24 6551.87 
28 3313.43 
32 1885.07 
36 985.393 
40 317.374 
44 444.201 
48 552.622 
