ITEM: TIMESTEP
197000
ITEM: NUMBER OF SURFS
50
ITEM: BOX BOUNDS oo ro pp
-0.2 0.65
0 0.4
-0.5 0.5
ITEM: SURFS id f_88[*] 
1 37800.9 
5 36090.9 
9 30443.3 
13 23351.5 
17 15805.7 
21 10184.7 
25 5782.92 
29 2805.49 
33 1475.06 
37 666.337 
41 371.54 
45 416.773 
49 491.327 
2 38419.1 
6 35492.6 
10 28387.3 
14 21276.3 
18 14375.7 
22 9127.36 
26 4870.67 
30 2444.55 
34 1172.66 
38 573.396 
42 374.317 
46 413.916 
50 506.67 
3 36953.9 
7 33660.9 
11 25758.6 
15 18887.7 
19 12524.6 
23 7425.73 
27 3915.33 
31 2122.35 
35 896.516 
39 386.733 
43 383.812 
47 466.438 
4 36409.3 
8 33093.2 
12 24680.4 
16 17193.4 
20 11389.5 
24 6892.9 
28 3399.59 
32 1744.05 
36 897.982 
40 439.815 
44 295.925 
48 530.986 
