ITEM: TIMESTEP
151000
ITEM: NUMBER OF SURFS
50
ITEM: BOX BOUNDS oo ro pp
-0.2 0.65
0 0.4
-0.5 0.5
ITEM: SURFS id f_88[*] 
1 38425.1 
5 35961.1 
9 30928.4 
13 23951.7 
17 15823.7 
21 9817.23 
25 5909.84 
29 2980.92 
33 1415.09 
37 541.847 
41 364.939 
45 512.034 
49 538.779 
2 39997.5 
6 35150.6 
10 28418.5 
14 22089.8 
18 13915.8 
22 8618.56 
26 5076.46 
30 2454.71 
34 1293.61 
38 527.644 
42 261.675 
46 482.305 
50 454.07 
3 37767.6 
7 33744.5 
11 25876.2 
15 19734.8 
19 12729.6 
23 7528.03 
27 4019.43 
31 2073.69 
35 809.2 
39 504.397 
43 466.977 
47 535.972 
4 37353 
8 31499.6 
12 25020.1 
16 18148.1 
20 11339.9 
24 6840.72 
28 3492.93 
32 1663.71 
36 668.51 
40 363.308 
44 336.765 
48 519.239 
