ITEM: TIMESTEP
284000
ITEM: NUMBER OF SURFS
50
ITEM: BOX BOUNDS oo ro pp
-0.2 0.65
0 0.4
-0.5 0.5
ITEM: SURFS id f_88[*] 
1 38265.8 
5 35809.5 
9 31028.1 
13 23674.6 
17 15854.7 
21 10110.6 
25 5706.85 
29 2966.89 
33 1326.61 
37 598.89 
41 301.678 
45 391.922 
49 626.74 
2 38633.8 
6 34890.6 
10 28144.9 
14 21636.6 
18 14166 
22 8523.3 
26 4955.36 
30 2406.93 
34 1230.73 
38 617.347 
42 338.962 
46 439.342 
50 558.348 
3 37342.6 
7 32843.4 
11 26476.1 
15 19398.8 
19 12691 
23 7350.21 
27 3943.55 
31 2262.18 
35 889.35 
39 371.156 
43 289.412 
47 539.921 
4 36739.7 
8 31725.1 
12 25322.7 
16 17793.8 
20 10734.8 
24 6447.62 
28 3449.3 
32 1518.2 
36 818.786 
40 381.958 
44 360.699 
48 528.111 
