ITEM: TIMESTEP
263000
ITEM: NUMBER OF SURFS
50
ITEM: BOX BOUNDS oo ro pp
-0.2 0.65
0 0.4
-0.5 0.5
ITEM: SURFS id f_88[*] 
1 39713.5 
5 35878.5 
9 30422.9 
13 23152.3 
17 16270 
21 9697.55 
25 5553.68 
29 3060.19 
33 1469.92 
37 584.02 
41 384.144 
45 420.23 
49 532.643 
2 38059.4 
6 35359.2 
10 29503.2 
14 20777.5 
18 14336.2 
22 8680.95 
26 4975.79 
30 2530.42 
34 1097.78 
38 597.397 
42 277.034 
46 409.999 
50 529.687 
3 36613.6 
7 33842.2 
11 26652.6 
15 19096.1 
19 12262.7 
23 7780.28 
27 4215.32 
31 1913.12 
35 920.404 
39 498.439 
43 364.172 
47 463.334 
4 36980.3 
8 31173.4 
12 24600.9 
16 17457.5 
20 11278.2 
24 6250.69 
28 3544.78 
32 1774.43 
36 626.984 
40 300.707 
44 403.18 
48 514.799 
