ITEM: TIMESTEP
228000
ITEM: NUMBER OF SURFS
50
ITEM: BOX BOUNDS oo ro pp
-0.2 0.65
0 0.4
-0.5 0.5
ITEM: SURFS id f_88[*] 
1 39098.1 
5 36757.7 
9 30695.4 
13 23072.4 
17 15347 
21 10077.6 
25 5694.47 
29 2726.85 
33 1390.97 
37 753.544 
41 298.178 
45 475.981 
49 556.928 
2 38369.6 
6 35385.1 
10 28786.9 
14 20804.3 
18 14551.3 
22 8744.11 
26 4880.8 
30 2416.17 
34 1248.09 
38 492.944 
42 243.679 
46 468.617 
50 639.661 
3 37906 
7 33730.9 
11 27137.4 
15 19813 
19 12682 
23 7990.15 
27 4058.14 
31 1954.45 
35 1020.47 
39 463.067 
43 350.9 
47 487.003 
4 36073.5 
8 31953.1 
12 24358.9 
16 17028.7 
20 11146.8 
24 6606.61 
28 3611.7 
32 1684.21 
36 850.919 
40 452.567 
44 288.019 
48 572.252 
