ITEM: TIMESTEP
15000
ITEM: NUMBER OF SURFS
50
ITEM: BOX BOUNDS oo ro pp
-0.2 0.65
0 0.4
-0.5 0.5
ITEM: SURFS id f_88[*] 
1 39853.3 
5 38969.1 
9 30835.8 
13 24775.1 
17 16767 
21 10200.8 
25 5759.49 
29 3150.9 
33 1549.12 
37 640.627 
41 135.146 
45 17.6627 
49 0 
2 40898.5 
6 37654.4 
10 30025.4 
14 22418.5 
18 14230.7 
22 8596.93 
26 4793.95 
30 2302.11 
34 1038.55 
38 415.384 
42 112.018 
46 4.38428 
50 5.82794 
3 40884 
7 35755.7 
11 28732.8 
15 20364.2 
19 13062.1 
23 7833.02 
27 4587.14 
31 2109.65 
35 907.81 
39 407.858 
43 56.2661 
47 0 
4 40222.6 
8 33279.8 
12 25933.3 
16 18715.2 
20 12320.4 
24 6789.9 
28 3421.34 
32 1577.48 
36 617 
40 241.66 
44 7.85245 
48 0 
