ITEM: TIMESTEP
169000
ITEM: NUMBER OF SURFS
50
ITEM: BOX BOUNDS oo ro pp
-0.2 0.65
0 0.4
-0.5 0.5
ITEM: SURFS id f_88[*] 
1 38491.4 
5 34341.1 
9 30794.2 
13 21864 
17 15953.9 
21 9763.07 
25 5787.23 
29 2768.17 
33 1312.53 
37 774.202 
41 379.535 
45 355.583 
49 596.793 
2 38625.8 
6 33742.5 
10 27595.1 
14 21413.6 
18 14680.8 
22 8404.59 
26 4907.04 
30 2210.29 
34 979.003 
38 543.414 
42 277.463 
46 397.223 
50 505.011 
3 36938.7 
7 33479.4 
11 27242.9 
15 19345.9 
19 12322.4 
23 7801.74 
27 4114.25 
31 2145.85 
35 1057.66 
39 449.796 
43 258.244 
47 506.063 
4 37190.1 
8 31973.6 
12 23717.9 
16 17380.8 
20 11399.7 
24 6604.78 
28 3546.79 
32 1676.11 
36 894.904 
40 421.645 
44 373.4 
48 490.052 
