ITEM: TIMESTEP
217000
ITEM: NUMBER OF SURFS
50
ITEM: BOX BOUNDS oo ro pp
-0.2 0.65
0 0.4
-0.5 0.5
ITEM: SURFS id f_88[*] 
1 37662.8 
5 36237.4 
9 30116.1 
13 23362.3 
17 15737.7 
21 10198.1 
25 5548.68 
29 2678.18 
33 1150.39 
37 546.491 
41 359.575 
45 418.839 
49 472.245 
2 38650.4 
6 35319.1 
10 28506.2 
14 21128 
18 14090 
22 8823.16 
26 4970.07 
30 2513.49 
34 1400.34 
38 491.304 
42 293.209 
46 498.268 
50 478.837 
3 38432.9 
7 33614.5 
11 25134.9 
15 18553.3 
19 12300.5 
23 7288.05 
27 3960.67 
31 2022.87 
35 920.475 
39 324.835 
43 368.547 
47 549.358 
4 36546.8 
8 31644.5 
12 25198.4 
16 17670.1 
20 11321.5 
24 7001.22 
28 3608.52 
32 1742.81 
36 666.725 
40 422.719 
44 384.485 
48 599.356 
