ITEM: TIMESTEP
131000
ITEM: NUMBER OF SURFS
50
ITEM: BOX BOUNDS oo ro pp
-0.2 0.65
0 0.4
-0.5 0.5
ITEM: SURFS id f_88[*] 
1 38411.9 
5 34734.8 
9 31056 
13 23230.4 
17 16354 
21 10072.4 
25 5829.09 
29 3141.47 
33 1730.98 
37 794.872 
41 345.773 
45 356.586 
49 580.993 
2 38514.1 
6 36190.3 
10 28836 
14 21402.8 
18 14154 
22 8783.73 
26 4987.43 
30 2496.17 
34 1147.8 
38 467.971 
42 292.124 
46 496.97 
50 500.227 
3 38755.5 
7 34057.5 
11 27228.7 
15 19175.3 
19 12631.3 
23 7199.8 
27 4117.6 
31 2221.74 
35 909.967 
39 519.448 
43 354.941 
47 439.879 
4 37226.6 
8 33354.7 
12 25524.6 
16 17078.3 
20 11087.4 
24 6778.86 
28 3494.21 
32 1742.46 
36 783.012 
40 365.944 
44 429.52 
48 551.43 
