ITEM: TIMESTEP
194000
ITEM: NUMBER OF SURFS
50
ITEM: BOX BOUNDS oo ro pp
-0.2 0.65
0 0.4
-0.5 0.5
ITEM: SURFS id f_88[*] 
1 38936.2 
5 37021.9 
9 30663.1 
13 22838.3 
17 15791.2 
21 9311.58 
25 5868.91 
29 2941.51 
33 1436.64 
37 712.705 
41 295.962 
45 352.459 
49 544.45 
2 37127.7 
6 35485.7 
10 28833.6 
14 21317.7 
18 13955.4 
22 8395.07 
26 4959.89 
30 2380.39 
34 1217 
38 509.285 
42 336.184 
46 424.29 
50 604.396 
3 37368.2 
7 32557.6 
11 26997.4 
15 18836.1 
19 13297.7 
23 7420.22 
27 4291.35 
31 1969.55 
35 837.574 
39 462.343 
43 349.876 
47 449.355 
4 38039 
8 31339.4 
12 23884.1 
16 16854.3 
20 11072.1 
24 6422.72 
28 3525.32 
32 1737.96 
36 756.614 
40 354.871 
44 429.08 
48 530.873 
