ITEM: TIMESTEP
14000
ITEM: NUMBER OF SURFS
50
ITEM: BOX BOUNDS oo ro pp
-0.2 0.65
0 0.4
-0.5 0.5
ITEM: SURFS id f_88[*] 
1 40249.6 
5 37667.8 
9 31651 
13 22971.3 
17 15897.1 
21 9655.97 
25 5433.31 
29 2840.98 
33 1381.14 
37 537.794 
41 130.204 
45 16.1776 
49 0 
2 40115.8 
6 36569.9 
10 30985.2 
14 21758.2 
18 14790.6 
22 8754.03 
26 4985.6 
30 2647.62 
34 1064.16 
38 376.894 
42 66.5343 
46 0 
50 0 
3 40521.6 
7 34474.1 
11 29251.7 
15 19773.9 
19 12726 
23 7217.06 
27 4111.74 
31 2137.5 
35 748.898 
39 237.716 
43 44.4913 
47 5.38505 
4 39049.8 
8 33049.3 
12 26729.5 
16 18511.2 
20 11921.2 
24 6593.04 
28 3663.77 
32 1524.42 
36 631.637 
40 200.813 
44 28.3297 
48 0 
