ITEM: TIMESTEP
41000
ITEM: NUMBER OF SURFS
50
ITEM: BOX BOUNDS oo ro pp
-0.2 0.65
0 0.4
-0.5 0.5
ITEM: SURFS id f_88[*] 
1 39167 
5 36341.6 
9 31201.5 
13 23995.5 
17 15805.2 
21 9965.05 
25 5497.62 
29 3124.84 
33 1170.67 
37 669.334 
41 303.329 
45 285.318 
49 323.709 
2 40105.1 
6 34986.3 
10 29775.7 
14 21436.5 
18 14310.6 
22 8648.69 
26 5006.99 
30 2445.98 
34 1054.46 
38 451.985 
42 279.332 
46 343.895 
50 404.468 
3 39123.5 
7 34267.1 
11 28303.2 
15 20059.9 
19 12977.6 
23 7715.27 
27 4140.15 
31 2231.61 
35 928.762 
39 334.629 
43 222.924 
47 361.232 
4 37155.1 
8 31953 
12 25490.4 
16 18457.2 
20 11161.5 
24 6217.89 
28 3714.25 
32 1626.57 
36 751.164 
40 282.502 
44 299.122 
48 380.352 
