ITEM: TIMESTEP
129000
ITEM: NUMBER OF SURFS
50
ITEM: BOX BOUNDS oo ro pp
-0.2 0.65
0 0.4
-0.5 0.5
ITEM: SURFS id f_88[*] 
1 38787.9 
5 37053.9 
9 30575.9 
13 23493.2 
17 16104.1 
21 9856.07 
25 5835.42 
29 3055.66 
33 1420.36 
37 591.024 
41 363.401 
45 352.666 
49 446.575 
2 37688.4 
6 33815.2 
10 27687.5 
14 21673.2 
18 14507.9 
22 8978.7 
26 5030.26 
30 2490.99 
34 1044.67 
38 643.323 
42 379.482 
46 449.118 
50 634.682 
3 38241.2 
7 32954.9 
11 26699.3 
15 19966.9 
19 12975.9 
23 7874.93 
27 4112.02 
31 2057.08 
35 1127.32 
39 375.975 
43 461.534 
47 370.5 
4 37246.5 
8 32096 
12 24502.4 
16 18123.4 
20 11175.5 
24 6572.96 
28 3411.08 
32 1640.92 
36 813.63 
40 413.161 
44 395.472 
48 472.141 
