TITLE = "MSL-10s-surf-half at time = 14000"
VARIABLES = "X", "Y", "Z", "id", "f_3[1]", "f_3[2]", "f_3[3]", "f_3[4]", "f_3[5]", "f_3[6]"
ZONE NODES = 62649, ELEMENTS = 20883, DATAPACKING = BLOCK, VARLOCATION = ([4-10] = CELLCENTERED), ZONETYPE = FETRIANGLE, SOLUTIONTIME = 14000
0.317393988371 0.289384007454 0.289387077093 0.317393988371 0.317313700914 0.317394763231
0.289384007454 0.260715007782 0.260717391968 0.289384007454 0.289171397686
0.289387077093 0.260715007782 0.232155993581 0.232158005238 0.260715007782
0.260549724102 0.260717391968 0.232155993581 0.203958004713 0.203959703445
0.232155993581 0.232027068734 0.232158005238 0.203958004713 0.176294997334
0.176296487451 0.203958004713 0.203858092427 0.203959703445 0.176294997334
0.149294003844 0.149295300245 0.176294997334 0.17621819675 0.176296487451
0.149294003844 0.123029999435 0.123031139374 0.149294003844 0.149235963821
0.149295300245 0.123029999435 0.0976239964366 0.0976249948144 0.123029999435
0.122987166047 0.123031139374 0.0976239964366 0.0730260014534 0.0730267912149
0.0976239964366 0.0975931063294 0.0976249948144 0.0730260014534 0.0506579987705
0.0506585352123 0.0730260014534 0.0730063691735 0.0730267912149 0.0506579987705
0.0329799987376 0.0329802706838 0.0506579987705 0.0506479404867 0.0506585352123
0.0329799987376 0.0196620002389 0.0196620412171 0.0329799987376 0.0329761654139
0.0329802706838 0.0196620002389 0.017950180918 0.0196616258472 0.0196620002389
0.0196616258472 0.0196620412171 0.739467978477 0.737323999405 0.737323999405
0.737323999405 0.735253989697 0.735253989697 0.737323999405 0.7373239398
0.737323999405 0.735253989697 0.733259022236 0.733258962631 0.735253989697
0.735253930092 0.735253989697 0.733259022236 0.731339991093 0.731339991093
0.733259022236 0.733258962631 0.733258962631 0.731339991093 0.72949898243
0.72949898243 0.731339991093 0.731339931488 0.731339991093 0.72949898243
0.727737009525 0.727736949921 0.72949898243 0.72949898243 0.72949898243
0.727737009525 0.726054012775 0.726053953171 0.727737009525 0.727736949921
0.727736949921 0.726054012775 0.724451005459 0.724450945854 0.726054012775
0.726053893566 0.726053953171 0.724451005459 0.722931027412 0.722930967808
0.724451005459 0.724450945854 0.724450945854 0.722931027412 0.721494019032
0.721493959427 0.722931027412 0.722930908203 0.722930967808 0.721494019032
0.720147013664 0.72014695406 0.721494019032 0.721493899822 0.721493959427
0.720147013664 0.718854010105 0.7188539505 0.720147013664 0.72014683485
0.72014695406 0.718854010105 0.717539012432 0.717538893223 0.718854010105
0.718853831291 0.7188539505 0.717539012432 0.715996026993 0.715995848179
0.717539012432 0.717538774014 0.717538893223 0.715996026993 0.71419698
0.71419686079 0.715996026993 0.715995669365 0.715995848179 0.71419698
0.712100982666 0.712100803852 0.71419698 0.714196562767 0.71419686079
0.712100982666 0.709667026997 0.709666728973 0.712100982666 0.712100446224
0.712100803852 0.709667026997 0.706844985485 0.706844687462 0.709667026997
0.709666192532 0.709666728973 0.706844985485 0.703584015369 0.703583657742
0.706844985485 0.706843852997 0.706844687462 0.703584015369 0.699824988842
0.699824571609 0.703584015369 0.703582406044 0.703583657742 0.699824988842
0.695508003235 0.695507526398 0.699824988842 0.69982278347 0.699824571609
0.695508003235 0.690564990044 0.690564453602 0.695508003235 0.695504963398
0.695507526398 0.690564990044 0.684930026531 0.684929430485 0.690564990044
0.690560936928 0.690564453602 0.684930026531 0.678529977798 0.678529381752
0.684930026531 0.684924423695 0.684929430485 0.678529977798 0.67129099369
0.671290397644 0.678529977798 0.678522527218 0.678529381752 0.67129099369
0.663138985634 0.663138389587 0.67129099369 0.671281039715 0.671290397644
0.663138985634 0.654000997543 0.654000461102 0.663138985634 0.663125753403
0.663138389587 0.654000997543 0.643801987171 0.643801510334 0.654000997543
0.653983712196 0.654000461102 0.643801987171 0.632474005222 0.632473647594
0.643801987171 0.643779635429 0.643801510334 0.632474005222 0.619952023029
0.619951784611 0.632474005222 0.632445394993 0.632473647594 0.619952023029
0.606180012226 0.606179952621 0.619952023029 0.619915485382 0.619951784611
0.606180012226 0.591114997864 0.591115176678 0.606180012226 0.606134295464
0.606179952621 0.591114997864 0.574725985527 0.57472640276 0.591114997864
0.591058194637 0.591115176678 0.574725985527 0.557003974915 0.55700469017
0.574725985527 0.574655890465 0.57472640276 0.557003974915 0.537964999676
0.53796595335 0.557003974915 0.556918501854 0.55700469017 0.537964999676
0.517647027969 0.517648160458 0.537964999676 0.537861526012 0.53796595335
0.517647027969 0.496084004641 0.496085315943 0.517647027969 0.517522215843
0.517648160458 0.496084004641 0.473347008228 0.473348528147 0.496084004641
0.495935738087 0.496085315943 0.473347008228 0.449523985386 0.449525773525
0.473347008228 0.473173111677 0.473348528147 0.449523985386 0.424726009369
0.424728035927 0.449523985386 0.449323445559 0.449525773525 0.424726009369
0.399073004723 0.399075359106 0.424726009369 0.424499690533 0.424728035927
0.399073004723 0.372658997774 0.372661620378 0.399073004723 0.398825973272
0.399075359106 0.372658997774 0.34552899003 0.345531910658 0.372658997774
0.372401714325 0.372661620378 0.34552899003 0.317393988371 0.317394763231
0.34552899003 0.345287680626 0.345531910658 0.729499995708 0.729499995708
0.729499995708 0.729499995708 0.729499995708 0.731341004372 0.727737009525
0.727736949921 0.727737009525 0.729499995708 0.727737009525 0.729499995708
0.726054012775 0.726053953171 0.726054012775 0.727736949921 0.726054012775
0.727737009525 0.724451005459 0.724451005459 0.724451005459 0.726053953171
0.724451005459 0.726054012775 0.722931027412 0.722930967808 0.722931027412
0.724451005459 0.722931027412 0.724451005459 0.721494972706 0.721494972706
0.721494972706 0.722930967808 0.721494972706 0.722931027412 0.720147013664
0.72014695406 0.720147013664 0.721494972706 0.720147013664 0.721494972706
0.718852996826 0.718852937222 0.718852996826 0.72014695406 0.718852996826
0.720147013664 0.717539012432 0.717538952827 0.717539012432 0.718852937222
0.717539012432 0.718852996826 0.715996026993 0.715995907784 0.715996026993
0.717538952827 0.715996026993 0.717539012432 0.714197039604 0.714196920395
0.71419698 0.715995907784 0.71419698 0.715996026993 0.712101101875
0.712100863457 0.712100982666 0.714196920395 0.712100982666 0.71419698
0.709666132927 0.709665834904 0.709666013718 0.712100863457 0.709666013718
0.712100982666 0.706844270229 0.706843793392 0.706843972206 0.709665834904
0.706843972206 0.709666013718 0.703582465649 0.703581750393 0.703581988811
0.706843793392 0.703581988811 0.706843972206 0.699823737144 0.699822723866
0.699823021889 0.703581750393 0.699823021889 0.703581988811 0.695505142212
0.695503652096 0.695504009724 0.699822723866 0.695504009724 0.699823021889
0.690562784672 0.690560638905 0.690560996532 0.695503652096 0.690560996532
0.695504009724 0.684926629066 0.68492358923 0.684924006462 0.690560638905
0.684924006462 0.690560996532 0.678526759148 0.678522586823 0.678523004055
0.68492358923 0.678523004055 0.684924006462 0.671287417412 0.671281576157
0.671281993389 0.678522586823 0.671281993389 0.678523004055 0.663135528564
0.663127541542 0.663128018379 0.671281576157 0.663128018379 0.671281993389
0.653997242451 0.653986573219 0.653986990452 0.663127541542 0.653986990452
0.663128018379 0.643798589706 0.64378464222 0.643784999847 0.653986573219
0.643784999847 0.653986990452 0.632471978664 0.632453739643 0.632453978062
0.64378464222 0.632453978062 0.643784999847 0.61995112896 0.619927823544
0.619928002357 0.632453739643 0.619928002357 0.632453978062 0.606181800365
0.606151998043 0.606151998043 0.619927823544 0.606151998043 0.619928002357
0.591120958328 0.591083109379 0.59108299017 0.606151998043 0.59108299017
0.606151998043 0.574738264084 0.574689328671 0.574688971043 0.591083109379
0.574688971043 0.59108299017 0.557024478912 0.556962549686 0.556962013245
0.574689328671 0.556962013245 0.574688971043 0.538035154343 0.537920176983
0.53791898489 0.556962549686 0.53791898489 0.556962013245 0.517652273178
0.517598509789 0.517597973347 0.537920176983 0.517597973347 0.53791898489
0.496132463217 0.496032983065 0.496031999588 0.517598509789 0.496031999588
0.517597973347 0.473387986422 0.473292917013 0.473291993141 0.496032983065
0.473291993141 0.496031999588 0.449580430984 0.449469059706 0.449467986822
0.473292917013 0.449467986822 0.473291993141 0.449469059706 0.437330275774
0.449467986822 0.399152189493 0.399021327496 0.399019986391 0.399152189493
0.399019986391 0.41177302599 0.372736513615 0.37261235714 0.372610986233
0.399021327496 0.372610986233 0.399019986391 0.345580130816 0.345492124557
0.345490992069 0.37261235714 0.345490992069 0.372610986233 0.345492124557
0.33112680912 0.345490992069 0.289810985327 0.289384007454 0.317393988371
0.317306995392 0.289810985327 0.317393988371 0.261132001877 0.260715007782
0.289384007454 0.289810985327 0.261132001877 0.289384007454 0.232596993446
0.232155993581 0.260715007782 0.261132001877 0.232596993446 0.260715007782
0.204429998994 0.203958004713 0.232155993581 0.232596993446 0.204429998994
0.232155993581 0.176809996367 0.176294997334 0.203958004713 0.204429998994
0.176809996367 0.203958004713 0.149873003364 0.149294003844 0.176294997334
0.176809996367 0.149873003364 0.176294997334 0.123686999083 0.123029999435
0.149294003844 0.149873003364 0.123686999083 0.149294003844 0.0983870029449
0.0976239964366 0.123029999435 0.123686999083 0.0983870029449 0.123029999435
0.0738919973373 0.0730260014534 0.0976239964366 0.0983870029449 0.0738919973373
0.0976239964366 0.051550000906 0.0506579987705 0.0730260014534 0.0738919973373
0.051550000906 0.0730260014534 0.0338569991291 0.0329799987376 0.0506579987705
0.051550000906 0.0338569991291 0.0506579987705 0.0205739997327 0.0196620002389
0.0329799987376 0.0338569991291 0.0205739997327 0.0329799987376 0.0111699998379
0.0102471830323 0.0196620002389 0.0205739997327 0.0111699998379 0.0196620002389
0.00513199996203 0.00420038960874 0.0102459872141 0.0111699998379 0.00513199996203
0.0102459872141 0.00189399998635 0.000966571038589 0.0041990368627 0.00513199996203
0.00189399998635 0.0041990368627 0.000905999972019 7.36536833301e-07 0.000965963059571
0.00189399998635 0.000905999972019 0.000965963059571 0.00189099996351 0.00095294933999
1.53804046477e-06 0.000905999972019 0.00189099996351 1.53804046477e-06 0.00512300012633
0.00417319266126 0.000956221658271 0.00189099996351 0.00512300012633 0.000956221658271
0.0111499996856 0.0102054588497 0.00418076710775 0.00512300012633 0.0111499996856
0.00418076710775 0.0205390006304 0.0196049641818 0.0102199902758 0.0111499996856
0.0205390006304 0.0102199902758 0.0338019989431 0.0329073481262 0.0196329280734
0.0205390006304 0.0338019989431 0.0196329280734 0.0514700002968 0.0505668073893
0.0329538583755 0.0338019989431 0.0514700002968 0.0329538583755 0.0737880021334
0.0729200318456 0.0506364777684 0.0514700002968 0.0737880021334 0.0506364777684
0.0982860028744 0.0975188687444 0.0730057954788 0.0737880021334 0.0982860028744
0.0730057954788 0.12358699739 0.122922569513 0.0976135060191 0.0982860028744
0.12358699739 0.0976135060191 0.149776995182 0.14918923378 0.123023703694
0.12358699739 0.149776995182 0.123023703694 0.176717996597 0.176190882921
0.149291470647 0.149776995182 0.176717996597 0.149291470647 0.204344004393
0.203857555985 0.17628929019 0.176717996597 0.204344004393 0.17628929019
0.232519999146 0.232062265277 0.203947395086 0.204344004393 0.232519999146
0.203947395086 0.261065006256 0.26062899828 0.232140526175 0.232519999146
0.261065006256 0.232140526175 0.289752990007 0.289276987314 0.260693430901
0.261065006256 0.289752990007 0.260693430901 0.317279011011 0.317398607731
0.289331763983 0.289752990007 0.317279011011 0.289331763983 0.290250003338
0.289810985327 0.317306995392 0.318006008863 0.290250003338 0.317306995392
0.261693000793 0.261132001877 0.289810985327 0.290250003338 0.261693000793
0.289810985327 0.233317002654 0.232596993446 0.261132001877 0.261693000793
0.233317002654 0.261132001877 0.20534799993 0.204429998994 0.232596993446
0.233317002654 0.20534799993 0.232596993446 0.177952006459 0.176809996367
0.204429998994 0.20534799993 0.177952006459 0.204429998994 0.151273995638
0.149873003364 0.176809996367 0.177952006459 0.151273995638 0.176809996367
0.125387996435 0.123686999083 0.149873003364 0.151273995638 0.125387996435
0.149873003364 0.100451000035 0.0983870029449 0.123686999083 0.125387996435
0.100451000035 0.123686999083 0.0763700008392 0.0738919973373 0.0983870029449
0.100451000035 0.0763700008392 0.0983870029449 0.0542649999261 0.051550000906
0.0738919973373 0.0763700008392 0.0542649999261 0.0738919973373 0.0365869998932
0.0338569991291 0.051550000906 0.0542649999261 0.0365869998932 0.051550000906
0.0233469996601 0.0205739997327 0.0338569991291 0.0365869998932 0.0233469996601
0.0338569991291 0.0139549998567 0.0111699998379 0.0205739997327 0.0233469996601
0.0139549998567 0.0205739997327 0.00791999977082 0.00513199996203 0.0111699998379
0.0139549998567 0.00791999977082 0.0111699998379 0.00467400019988 0.00189399998635
0.00513199996203 0.00791999977082 0.00467400019988 0.00513199996203 0.00368200009689
0.000905999972019 0.00189399998635 0.00467400019988 0.00368200009689 0.00189399998635
0.00467099994421 0.00189099996351 0.000905999972019 0.00368200009689 0.00467099994421
0.000905999972019 0.00790799967945 0.00512300012633 0.00189099996351 0.00467099994421
0.00790799967945 0.00189099996351 0.0139290001243 0.0111499996856 0.00512300012633
0.00790799967945 0.0139290001243 0.00512300012633 0.023302000016 0.0205390006304
0.0111499996856 0.0139290001243 0.023302000016 0.0111499996856 0.0365189984441
0.0338019989431 0.0205390006304 0.023302000016 0.0365189984441 0.0205390006304
0.0541669987142 0.0514700002968 0.0338019989431 0.0365189984441 0.0541669987142
0.0338019989431 0.076247997582 0.0737880021334 0.0514700002968 0.0541669987142
0.076247997582 0.0514700002968 0.100334003568 0.0982860028744 0.0737880021334
0.076247997582 0.100334003568 0.0737880021334 0.125273004174 0.12358699739
0.0982860028744 0.100334003568 0.125273004174 0.0982860028744 0.151162996888
0.149776995182 0.12358699739 0.125273004174 0.151162996888 0.12358699739
0.177845999599 0.176717996597 0.149776995182 0.151162996888 0.177845999599
0.149776995182 0.205248996615 0.204344004393 0.176717996597 0.177845999599
0.205248996615 0.176717996597 0.233227998018 0.232519999146 0.204344004393
0.205248996615 0.233227998018 0.204344004393 0.261615991592 0.261065006256
0.232519999146 0.233227998018 0.261615991592 0.232519999146 0.290183007717
0.289752990007 0.261065006256 0.261615991592 0.290183007717 0.261065006256
0.317932993174 0.317279011011 0.289752990007 0.290183007717 0.317932993174
0.289752990007 0.291074991226 0.290250003338 0.318006008863 0.318652004004
0.291074991226 0.318006008863 0.26270699501 0.261693000793 0.290250003338
0.291074991226 0.26270699501 0.290250003338 0.234599992633 0.233317002654
0.261693000793 0.26270699501 0.234599992633 0.261693000793 0.206936001778
0.20534799993 0.233317002654 0.234599992633 0.206936001778 0.233317002654
0.179891005158 0.177952006459 0.20534799993 0.206936001778 0.179891005158
0.20534799993 0.153615996242 0.151273995638 0.177952006459 0.179891005158
0.153615996242 0.177952006459 0.128199994564 0.125387996435 0.151273995638
0.153615996242 0.128199994564 0.151273995638 0.103813998401 0.100451000035
0.125387996435 0.128199994564 0.103813998401 0.125387996435 0.0804079994559
0.0763700008392 0.100451000035 0.103813998401 0.0804079994559 0.100451000035
0.058779001236 0.0542649999261 0.0763700008392 0.0804079994559 0.058779001236
0.0763700008392 0.0411229990423 0.0365869998932 0.0542649999261 0.058779001236
0.0411229990423 0.0542649999261 0.0279309991747 0.0233469996601 0.0365869998932
0.0411229990423 0.0279309991747 0.0365869998932 0.0185439996421 0.0139549998567
0.0233469996601 0.0279309991747 0.0185439996421 0.0233469996601 0.0125059997663
0.00791999977082 0.0139549998567 0.0185439996421 0.0125059997663 0.0139549998567
0.00925199966878 0.00467400019988 0.00791999977082 0.0125059997663 0.00925199966878
0.00791999977082 0.00826200004667 0.00368200009689 0.00467400019988 0.00925199966878
0.00826200004667 0.00467400019988 0.0092470003292 0.00467099994421 0.00368200009689
0.00826200004667 0.0092470003292 0.00368200009689 0.0124890003353 0.00790799967945
0.00467099994421 0.0092470003292 0.0124890003353 0.00467099994421 0.0185100007802
0.0139290001243 0.00790799967945 0.0124890003353 0.0185100007802 0.00790799967945
0.0278760008514 0.023302000016 0.0139290001243 0.0185100007802 0.0278760008514
0.0139290001243 0.0410410016775 0.0365189984441 0.023302000016 0.0278760008514
0.0410410016775 0.023302000016 0.05866599828 0.0541669987142 0.0365189984441
0.0410410016775 0.05866599828 0.0365189984441 0.0802740007639 0.076247997582
0.0541669987142 0.05866599828 0.0802740007639 0.0541669987142 0.103685997427
0.100334003568 0.076247997582 0.0802740007639 0.103685997427 0.076247997582
0.128074005246 0.125273004174 0.100334003568 0.103685997427 0.128074005246
0.100334003568 0.153493002057 0.151162996888 0.125273004174 0.128074005246
0.153493002057 0.125273004174 0.179774001241 0.177845999599 0.151162996888
0.153493002057 0.179774001241 0.151162996888 0.206826001406 0.205248996615
0.177845999599 0.179774001241 0.206826001406 0.177845999599 0.234500005841
0.233227998018 0.205248996615 0.206826001406 0.234500005841 0.205248996615
0.262618988752 0.261615991592 0.233227998018 0.234500005841 0.262618988752
0.233227998018 0.290998995304 0.290183007717 0.261615991592 0.262618988752
0.290998995304 0.261615991592 0.318574994802 0.317932993174 0.290183007717
0.290998995304 0.318574994802 0.290183007717 0.292261004448 0.291074991226
0.318652004004 0.319624990225 0.292261004448 0.318652004004 0.264198005199
0.26270699501 0.291074991226 0.292261004448 0.264198005199 0.291074991226
0.236441999674 0.234599992633 0.26270699501 0.264198005199 0.236441999674
0.26270699501 0.209187999368 0.206936001778 0.234599992633 0.236441999674
0.209187999368 0.234599992633 0.182612001896 0.179891005158 0.206936001778
0.209187999368 0.182612001896 0.206936001778 0.156867995858 0.153615996242
0.179891005158 0.182612001896 0.156867995858 0.179891005158 0.132078006864
0.128199994564 0.153615996242 0.156867995858 0.132078006864 0.153615996242
0.108395002782 0.103813998401 0.128199994564 0.132078006864 0.108395002782
0.128199994564 0.0859000012279 0.0804079994559 0.103813998401 0.108395002782
0.0859000012279 0.103813998401 0.0650610029697 0.058779001236 0.0804079994559
0.0859000012279 0.0650610029697 0.0804079994559 0.0474550016224 0.0411229990423
0.058779001236 0.0650610029697 0.0474550016224 0.058779001236 0.0343240015209
0.0279309991747 0.0411229990423 0.0474550016224 0.0343240015209 0.0411229990423
0.0249470006675 0.0185439996421 0.0279309991747 0.0343240015209 0.0249470006675
0.0279309991747 0.0189050007612 0.0125059997663 0.0185439996421 0.0249470006675
0.0189050007612 0.0185439996421 0.0156410001218 0.00925199966878 0.0125059997663
0.0189050007612 0.0156410001218 0.0125059997663 0.0146589996293 0.00826200004667
0.00925199966878 0.0156410001218 0.0146589996293 0.00925199966878 0.0156340003014
0.0092470003292 0.00826200004667 0.0146589996293 0.0156340003014 0.00826200004667
0.0188829991966 0.0124890003353 0.0092470003292 0.0156340003014 0.0188829991966
0.0092470003292 0.024904999882 0.0185100007802 0.0124890003353 0.0188829991966
0.024904999882 0.0124890003353 0.0342589989305 0.0278760008514 0.0185100007802
0.024904999882 0.0342589989305 0.0185100007802 0.0473599992692 0.0410410016775
0.0278760008514 0.0342589989305 0.0473599992692 0.0278760008514 0.0649330019951
0.05866599828 0.0410410016775 0.0473599992692 0.0649330019951 0.0410410016775
0.085762001574 0.0802740007639 0.05866599828 0.0649330019951 0.085762001574
0.05866599828 0.108258999884 0.103685997427 0.0802740007639 0.085762001574
0.108258999884 0.0802740007639 0.131943002343 0.128074005246 0.103685997427
0.108258999884 0.131943002343 0.103685997427 0.156736001372 0.153493002057
0.128074005246 0.131943002343 0.156736001372 0.128074005246 0.182484999299
0.179774001241 0.153493002057 0.156736001372 0.182484999299 0.153493002057
0.209068998694 0.206826001406 0.179774001241 0.182484999299 0.209068998694
0.179774001241 0.236331000924 0.234500005841 0.206826001406 0.209068998694
0.236331000924 0.206826001406 0.264099985361 0.262618988752 0.234500005841
0.236331000924 0.264099985361 0.234500005841 0.292174994946 0.290998995304
0.262618988752 0.264099985361 0.292174994946 0.262618988752 0.31954100728
0.318574994802 0.290998995304 0.292174994946 0.31954100728 0.290998995304
0.29386100173 0.292261004448 0.319624990225 0.320948988199 0.29386100173
0.319624990225 0.266193985939 0.264198005199 0.292261004448 0.29386100173
0.266193985939 0.292261004448 0.238877996802 0.236441999674 0.264198005199
0.266193985939 0.238877996802 0.264198005199 0.212121993303 0.209187999368
0.236441999674 0.238877996802 0.212121993303 0.236441999674 0.186112001538
0.182612001896 0.209187999368 0.212121993303 0.186112001538 0.209187999368
0.161008000374 0.156867995858 0.182612001896 0.186112001538 0.161008000374
0.182612001896 0.136958003044 0.132078006864 0.156867995858 0.161008000374
0.136958003044 0.156867995858 0.114110998809 0.108395002782 0.132078006864
0.136958003044 0.114110998809 0.132078006864 0.0926299989223 0.0859000012279
0.108395002782 0.114110998809 0.0926299989223 0.108395002782 0.0728200003505
0.0650610029697 0.0859000012279 0.0926299989223 0.0728200003505 0.0859000012279
0.0555570013821 0.0474550016224 0.0650610029697 0.0728200003505 0.0555570013821
0.0650610029697 0.0424810014665 0.0343240015209 0.0474550016224 0.0555570013821
0.0424810014665 0.0474550016224 0.0331269986928 0.0249470006675 0.0343240015209
0.0424810014665 0.0331269986928 0.0343240015209 0.0270840004086 0.0189050007612
0.0249470006675 0.0331269986928 0.0270840004086 0.0249470006675 0.0238129999489
0.0156410001218 0.0189050007612 0.0270840004086 0.0238129999489 0.0189050007612
0.0228369999677 0.0146589996293 0.0156410001218 0.0238129999489 0.0228369999677
0.0156410001218 0.0238039996475 0.0156340003014 0.0146589996293 0.0228369999677
0.0238039996475 0.0146589996293 0.0270569995046 0.0188829991966 0.0156340003014
0.0238039996475 0.0270569995046 0.0156340003014 0.0330779999495 0.024904999882
0.0188829991966 0.0270569995046 0.0330779999495 0.0188829991966 0.0424060001969
0.0342589989305 0.024904999882 0.0330779999495 0.0424060001969 0.024904999882
0.0554509982467 0.0473599992692 0.0342589989305 0.0424060001969 0.0554509982467
0.0342589989305 0.0726829990745 0.0649330019951 0.0473599992692 0.0554509982467
0.0726829990745 0.0473599992692 0.0924910008907 0.085762001574 0.0649330019951
0.0726829990745 0.0924910008907 0.0649330019951 0.113967999816 0.108258999884
0.085762001574 0.0924910008907 0.113967999816 0.085762001574 0.136816993356
0.131943002343 0.108258999884 0.113967999816 0.136816993356 0.108258999884
0.160867005587 0.156736001372 0.131943002343 0.136816993356 0.160867005587
0.131943002343 0.18597599864 0.182484999299 0.156736001372 0.160867005587
0.18597599864 0.156736001372 0.211991995573 0.209068998694 0.182484999299
0.18597599864 0.211991995573 0.182484999299 0.238757997751 0.236331000924
0.209068998694 0.211991995573 0.238757997751 0.209068998694 0.266084998846
0.264099985361 0.236331000924 0.238757997751 0.266084998846 0.236331000924
0.29376500845 0.292174994946 0.264099985361 0.266084998846 0.29376500845
0.264099985361 0.320854991674 0.31954100728 0.292174994946 0.29376500845
0.320854991674 0.292174994946 0.29583799839 0.29386100173 0.320948988199
0.322611004114 0.29583799839 0.320948988199 0.268651992083 0.266193985939
0.29386100173 0.29583799839 0.268651992083 0.29386100173 0.241871997714
0.238877996802 0.266193985939 0.268651992083 0.241871997714 0.266193985939
0.215703994036 0.212121993303 0.238877996802 0.241871997714 0.215703994036
0.238877996802 0.190347000957 0.186112001538 0.212121993303 0.215703994036
0.190347000957 0.212121993303 0.165974006057 0.161008000374 0.186112001538
0.190347000957 0.165974006057 0.186112001538 0.142748996615 0.136958003044
0.161008000374 0.165974006057 0.142748996615 0.161008000374 0.12084300071
0.114110998809 0.136958003044 0.142748996615 0.12084300071 0.136958003044
0.100409001112 0.0926299989223 0.114110998809 0.12084300071 0.100409001112
0.114110998809 0.0817990005016 0.0728200003505 0.0926299989223 0.100409001112
0.0817990005016 0.0926299989223 0.0653970018029 0.0555570013821 0.0728200003505
0.0817990005016 0.0653970018029 0.0728200003505 0.0523580014706 0.0424810014665
0.0555570013821 0.0653970018029 0.0523580014706 0.0555570013821 0.0430530011654
0.0331269986928 0.0424810014665 0.0523580014706 0.0430530011654 0.0424810014665
0.0370110012591 0.0270840004086 0.0331269986928 0.0430530011654 0.0370110012591
0.0331269986928 0.0337349995971 0.0238129999489 0.0270840004086 0.0370110012591
0.0337349995971 0.0270840004086 0.0327659994364 0.0228369999677 0.0238129999489
0.0337349995971 0.0327659994364 0.0238129999489 0.033723000437 0.0238039996475
0.0228369999677 0.0327659994364 0.033723000437 0.0228369999677 0.0369790010154
0.0270569995046 0.0238039996475 0.033723000437 0.0369790010154 0.0238039996475
0.0429969988763 0.0330779999495 0.0270569995046 0.0369790010154 0.0429969988763
0.0270569995046 0.0522719994187 0.0424060001969 0.0330779999495 0.0429969988763
0.0522719994187 0.0330779999495 0.0652810037136 0.0554509982467 0.0424060001969
0.0522719994187 0.0652810037136 0.0424060001969 0.0816640034318 0.0726829990745
0.0554509982467 0.0652810037136 0.0816640034318 0.0554509982467 0.100267998874
0.0924910008907 0.0726829990745 0.0816640034318 0.100267998874 0.0726829990745
0.120696000755 0.113967999816 0.0924910008907 0.100267998874 0.120696000755
0.0924910008907 0.14260199666 0.136816993356 0.113967999816 0.120696000755
0.14260199666 0.113967999816 0.165824994445 0.160867005587 0.136816993356
0.14260199666 0.165824994445 0.136816993356 0.190200999379 0.18597599864
0.160867005587 0.165824994445 0.190200999379 0.160867005587 0.215563997626
0.211991995573 0.18597599864 0.190200999379 0.215563997626 0.18597599864
0.241741001606 0.238757997751 0.211991995573 0.215563997626 0.241741001606
0.211991995573 0.268532991409 0.266084998846 0.238757997751 0.241741001606
0.268532991409 0.238757997751 0.295729994774 0.29376500845 0.266084998846
0.268532991409 0.295729994774 0.266084998846 0.322508007288 0.320854991674
0.29376500845 0.295729994774 0.322508007288 0.29376500845 0.298220992088
0.29583799839 0.322611004114 0.324631989002 0.298220992088 0.322611004114
0.271575987339 0.268651992083 0.29583799839 0.298220992088 0.271575987339
0.29583799839 0.245397999883 0.241871997714 0.268651992083 0.271575987339
0.245397999883 0.268651992083 0.219890996814 0.215703994036 0.241871997714
0.245397999883 0.219890996814 0.241871997714 0.195265993476 0.190347000957
0.215703994036 0.219890996814 0.195265993476 0.215703994036 0.171700999141
0.165974006057 0.190347000957 0.195265993476 0.171700999141 0.190347000957
0.149369999766 0.142748996615 0.165974006057 0.171700999141 0.149369999766
0.165974006057 0.128468006849 0.12084300071 0.142748996615 0.149369999766
0.128468006849 0.142748996615 0.109108999372 0.100409001112 0.12084300071
0.128468006849 0.109108999372 0.12084300071 0.0917159989476 0.0817990005016
0.100409001112 0.109108999372 0.0917159989476 0.100409001112 0.0765260010958
0.0653970018029 0.0817990005016 0.0917159989476 0.0765260010958 0.0817990005016
0.0639709979296 0.0523580014706 0.0653970018029 0.0765260010958 0.0639709979296
0.0653970018029 0.0546690002084 0.0430530011654 0.0523580014706 0.0639709979296
0.0546690002084 0.0523580014706 0.0486500002444 0.0370110012591 0.0430530011654
0.0546690002084 0.0486500002444 0.0430530011654 0.0453730002046 0.0337349995971
0.0370110012591 0.0486500002444 0.0453730002046 0.0370110012591 0.0444100014865
0.0327659994364 0.0337349995971 0.0453730002046 0.0444100014865 0.0337349995971
0.0453590005636 0.033723000437 0.0327659994364 0.0444100014865 0.0453590005636
0.0327659994364 0.048611998558 0.0369790010154 0.033723000437 0.0453590005636
0.048611998558 0.033723000437 0.0546049997211 0.0429969988763 0.0369790010154
0.048611998558 0.0546049997211 0.0369790010154 0.0638789981604 0.0522719994187
0.0429969988763 0.0546049997211 0.0638789981604 0.0429969988763 0.0764110013843
0.0652810037136 0.0522719994187 0.0638789981604 0.0764110013843 0.0522719994187
0.0915860012174 0.0816640034318 0.0652810037136 0.0764110013843 0.0915860012174
0.0652810037136 0.108967997134 0.100267998874 0.0816640034318 0.0915860012174
0.108967997134 0.0816640034318 0.128318995237 0.120696000755 0.100267998874
0.108967997134 0.128318995237 0.100267998874 0.149217993021 0.14260199666
0.120696000755 0.128318995237 0.149217993021 0.120696000755 0.171545997262
0.165824994445 0.14260199666 0.149217993021 0.171545997262 0.14260199666
0.195113003254 0.190200999379 0.165824994445 0.171545997262 0.195113003254
0.165824994445 0.219742000103 0.215563997626 0.190200999379 0.195113003254
0.219742000103 0.190200999379 0.245258003473 0.241741001606 0.215563997626
0.219742000103 0.245258003473 0.215563997626 0.271447002888 0.268532991409
0.241741001606 0.245258003473 0.271447002888 0.241741001606 0.298103004694
0.295729994774 0.268532991409 0.271447002888 0.298103004694 0.268532991409
0.324517995119 0.322508007288 0.295729994774 0.298103004694 0.324517995119
0.295729994774 0.301019996405 0.298220992088 0.324631989002 0.327015995979
0.301019996405 0.324631989002 0.274985998869 0.271575987339 0.298220992088
0.301019996405 0.274985998869 0.298220992088 0.249483004212 0.245397999883
0.271575987339 0.274985998869 0.249483004212 0.271575987339 0.224702000618
0.219890996814 0.245397999883 0.249483004212 0.224702000618 0.245397999883