ITEM: TIMESTEP
13000
ITEM: NUMBER OF CELLS
11858
ITEM: BOX BOUNDS oo ro oo
-2.505 0.895
0 2.5
-2.5 2.5
ITEM: CELLS id f_2[1] f_2[2] f_2[3] f_2[4] f_2[5] f_2[6] f_2[7] f_2[8] 
1 1.18139e-18 4.2256e-21 2.61549e-21 7.18562e-26 4.21918e-08 0.0335615 0.0302585 0.969742 
2 1.15063e-18 5.64112e-21 4.36304e-21 7.18399e-26 4.38268e-08 0.0508277 0.0306619 0.969338 
3 1.10481e-18 7.55839e-21 7.15076e-21 7.18169e-26 4.60162e-08 0.0760368 0.0312314 0.968769 
4 1.03807e-18 1.06094e-20 1.07517e-20 7.17918e-26 4.95041e-08 0.112889 0.0318538 0.968146 
11 1.18161e-18 4.31802e-21 2.5986e-21 7.18614e-26 4.19999e-08 0.0332199 0.0301305 0.96987 
12 1.15016e-18 5.6906e-21 4.39201e-21 7.18424e-26 4.33003e-08 0.0503169 0.0306005 0.9694 
13 1.10588e-18 7.5702e-21 7.07196e-21 7.18237e-26 4.52277e-08 0.0744382 0.0310636 0.968936 
14 1.0391e-18 1.04574e-20 1.07887e-20 7.18081e-26 4.85445e-08 0.110378 0.0314515 0.968548 
21 1.1828e-18 4.24289e-21 2.36139e-21 7.18663e-26 4.19096e-08 0.0322888 0.0300099 0.96999 
22 1.1527e-18 5.69008e-21 4.17755e-21 7.18557e-26 4.3139e-08 0.0487116 0.0302718 0.969728 
23 1.11002e-18 7.5261e-21 6.79836e-21 7.1837e-26 4.50302e-08 0.0720129 0.030734 0.969266 
24 1.04641e-18 1.04925e-20 1.04064e-20 7.18213e-26 4.81336e-08 0.105759 0.0311228 0.968877 
31 1.18671e-18 4.10682e-21 2.21251e-21 7.18592e-26 4.17912e-08 0.0301862 0.0301856 0.969814 
32 1.15942e-18 5.37884e-21 3.94028e-21 7.18414e-26 4.29111e-08 0.0451624 0.0306249 0.969375 
33 1.1206e-18 7.09751e-21 6.21497e-21 7.18378e-26 4.45832e-08 0.0663466 0.0307149 0.969285 
34 1.06294e-18 9.50985e-21 9.5345e-21 7.18208e-26 4.73512e-08 0.0969838 0.0311351 0.968865 
41 1.19071e-18 3.96678e-21 2.16399e-21 7.18673e-26 4.16509e-08 0.0278836 0.029984 0.970016 
42 1.16556e-18 5.0532e-21 3.76774e-21 7.18559e-26 4.26703e-08 0.0414846 0.0302675 0.969732 
43 1.13047e-18 6.67856e-21 5.74332e-21 7.18356e-26 4.4181e-08 0.0603295 0.0307684 0.969232 
44 1.08072e-18 8.95665e-21 8.75963e-21 7.18381e-26 4.64893e-08 0.0867963 0.0307077 0.969292 
51 1.19553e-18 3.66875e-21 2.03804e-21 7.18709e-26 4.14096e-08 0.0248528 0.0298948 0.970105 
52 1.17284e-18 4.77646e-21 3.40184e-21 7.1861e-26 4.23562e-08 0.0371375 0.0301406 0.969859 
53 1.14365e-18 6.16449e-21 5.20691e-21 7.18576e-26 4.35861e-08 0.0527671 0.0302234 0.969777 
54 1.1042e-18 7.93211e-21 7.49061e-21 7.18469e-26 4.53959e-08 0.0739406 0.0304887 0.969511 
61 1.20142e-18 3.49336e-21 1.6222e-21 7.18727e-26 4.12453e-08 0.021722 0.0298514 0.970149 
62 1.18355e-18 4.34101e-21 2.78051e-21 7.18728e-26 4.19676e-08 0.031416 0.029849 0.970151 
63 1.15988e-18 5.45654e-21 4.16783e-21 7.18543e-26 4.2926e-08 0.0440857 0.0303061 0.969694 
64 1.12914e-18 6.78775e-21 6.24778e-21 7.18438e-26 4.42237e-08 0.0603019 0.030567 0.969433 
71 1.17009e-18 4.77445e-21 3.21253e-21 7.1846e-26 4.27185e-08 0.039704 0.0305108 0.969489 
72 1.12934e-18 6.75676e-21 5.47915e-21 7.18236e-26 4.49751e-08 0.0622769 0.0310664 0.968934 
73 1.07269e-18 9.45219e-21 9.02097e-21 7.18035e-26 4.81406e-08 0.0941011 0.0315656 0.968434 
74 9.89958e-19 1.31731e-20 1.40237e-20 7.1791e-26 5.31079e-08 0.140471 0.031875 0.968125 
81 1.1717e-18 4.72162e-21 3.06465e-21 7.18469e-26 4.23576e-08 0.0387499 0.03049 0.96951 
82 1.12976e-18 6.7373e-21 5.60845e-21 7.18439e-26 4.40994e-08 0.061105 0.0305637 0.969436 
83 1.07246e-18 9.46729e-21 9.19942e-21 7.18177e-26 4.67868e-08 0.0914035 0.0312123 0.968788 
84 9.88162e-19 1.30061e-20 1.42233e-20 7.1798e-26 5.12204e-08 0.136271 0.0317012 0.968299 
91 1.17123e-18 4.65616e-21 3.04652e-21 7.18497e-26 4.23881e-08 0.0387538 0.0304197 0.96958 
92 1.13324e-18 6.55917e-21 5.41926e-21 7.18227e-26 4.38649e-08 0.0584695 0.0310892 0.968911 
93 1.077e-18 9.19686e-21 8.77056e-21 7.18108e-26 4.64448e-08 0.088496 0.0313844 0.968616 
94 9.96572e-19 1.27859e-20 1.38552e-20 7.17981e-26 5.0633e-08 0.131097 0.031699 0.968301 
101 1.17515e-18 4.55153e-21 2.8283e-21 7.18519e-26 4.22417e-08 0.0365822 0.0303662 0.969634 
102 1.14038e-18 6.33933e-21 5.12168e-21 7.18304e-26 4.36631e-08 0.0550909 0.0308973 0.969103 
103 1.08835e-18 8.66763e-21 8.48788e-21 7.18194e-26 4.59927e-08 0.082406 0.0311707 0.968829 
104 1.01568e-18 1.20172e-20 1.25482e-20 7.18072e-26 4.96482e-08 0.120457 0.0314717 0.968528 
111 1.18171e-18 4.28861e-21 2.59491e-21 7.18569e-26 4.19858e-08 0.0327653 0.0302427 0.969757 
112 1.14839e-18 6.04086e-21 4.83997e-21 7.18594e-26 4.33238e-08 0.0504201 0.0301792 0.969821 
113 1.10266e-18 8.3416e-21 7.7025e-21 7.1847e-26 4.52833e-08 0.0745117 0.0304858 0.969514 
114 1.03855e-18 1.13622e-20 1.15278e-20 7.18308e-26 4.84536e-08 0.108019 0.0308875 0.969113 
121 1.18733e-18 4.13784e-21 2.46756e-21 7.18641e-26 4.17957e-08 0.0296194 0.0300649 0.969935 
122 1.15892e-18 5.59507e-21 4.34547e-21 7.18554e-26 4.29492e-08 0.0446778 0.0302799 0.96972 
123 1.12142e-18 7.21191e-21 6.75478e-21 7.18379e-26 4.45204e-08 0.0640234 0.0307125 0.969287 
124 1.06631e-18 1.00125e-20 9.94208e-21 7.1828e-26 4.7069e-08 0.0926966 0.0309583 0.969042 
131 1.19378e-18 3.86866e-21 1.99595e-21 7.18694e-26 4.15364e-08 0.02601 0.0299332 0.970067 
132 1.17123e-18 4.94735e-21 3.64034e-21 7.18578e-26 4.23814e-08 0.038001 0.0302185 0.969782 
133 1.14113e-18 6.59922e-21 5.44764e-21 7.18525e-26 4.36212e-08 0.0538367 0.0303501 0.96965 
134 1.098e-18 8.54651e-21 7.95983e-21 7.18401e-26 4.55512e-08 0.0762502 0.0306581 0.969342 
141 1.15846e-18 5.27751e-21 3.84021e-21 7.18421e-26 4.31459e-08 0.0463367 0.030608 0.969392 
142 1.11164e-18 7.66671e-21 6.7598e-21 7.18241e-26 4.5755e-08 0.0719029 0.0310535 0.968946 
143 1.04241e-18 1.09896e-20 1.09027e-20 7.1798e-26 4.96318e-08 0.109965 0.0317007 0.968299 
144 9.46467e-19 1.52007e-20 1.67964e-20 7.17781e-26 5.5932e-08 0.164247 0.0321947 0.967805 
151 1.16098e-18 5.14987e-21 3.77986e-21 7.18431e-26 4.27961e-08 0.0447333 0.0305832 0.969417 
152 1.11138e-18 7.7775e-21 6.92104e-21 7.1817e-26 4.49421e-08 0.0707663 0.0312293 0.968771 
153 1.04177e-18 1.09358e-20 1.11139e-20 7.17939e-26 4.82804e-08 0.107611 0.0318036 0.968196 
154 9.41239e-19 1.52377e-20 1.71718e-20 7.1769e-26 5.40175e-08 0.160555 0.0324194 0.967581 
161 1.16132e-18 4.99399e-21 3.66446e-21 7.18442e-26 4.28107e-08 0.0443697 0.0305575 0.969443 
162 1.11466e-18 7.60806e-21 6.67271e-21 7.18241e-26 4.48905e-08 0.0691534 0.0310549 0.968945 
163 1.04811e-18 1.08085e-20 1.09521e-20 7.17998e-26 4.80378e-08 0.104032 0.0316556 0.968344 
164 9.54029e-19 1.48568e-20 1.63762e-20 7.17791e-26 5.33082e-08 0.153631 0.0321705 0.967829 
171 1.16539e-18 4.96889e-21 3.46995e-21 7.18444e-26 4.26753e-08 0.0420387 0.0305511 0.969449 
172 1.12198e-18 7.11907e-21 6.25441e-21 7.18273e-26 4.45572e-08 0.0649688 0.0309747 0.969025 
173 1.05981e-18 9.90722e-21 9.92657e-21 7.18345e-26 4.74572e-08 0.0979325 0.0307976 0.969202 
174 9.73164e-19 1.39895e-20 1.52177e-20 7.18061e-26 5.2166e-08 0.14311 0.0315004 0.9685 
181 1.17315e-18 4.66978e-21 2.95201e-21 7.18468e-26 4.23773e-08 0.0378687 0.0304919 0.969508 
182 1.13261e-18 6.83372e-21 5.9291e-21 7.18371e-26 4.41124e-08 0.0590225 0.0307318 0.969268 
183 1.07708e-18 9.44462e-21 9.28324e-21 7.1831e-26 4.66384e-08 0.0880275 0.0308824 0.969118 
184 1.00324e-18 1.31689e-20 1.3897e-20 7.18234e-26 5.04999e-08 0.126474 0.0310705 0.968929 
191 1.1798e-18 4.46841e-21 2.74982e-21 7.18588e-26 4.20733e-08 0.0338748 0.0301938 0.969806 
192 1.14468e-18 6.10413e-21 5.07411e-21 7.18509e-26 4.35581e-08 0.052329 0.0303913 0.969609 
193 1.09882e-18 8.4292e-21 8.06168e-21 7.18408e-26 4.5579e-08 0.0762709 0.0306398 0.96936 
194 1.03454e-18 1.15897e-20 1.1929e-20 7.18081e-26 4.87629e-08 0.109296 0.0314494 0.968551 
201 1.18771e-18 4.0786e-21 2.4628e-21 7.18647e-26 4.17393e-08 0.0293212 0.0300481 0.969952 
202 1.16097e-18 5.58213e-21 4.29864e-21 7.18567e-26 4.28415e-08 0.0435133 0.0302474 0.969753 
203 1.12318e-18 7.49081e-21 6.78185e-21 7.18403e-26 4.44193e-08 0.0631743 0.0306519 0.969348 
204 1.07131e-18 9.92172e-21 9.80861e-21 7.18279e-26 4.68485e-08 0.0901175 0.0309605 0.969039 
262 1.13301e-18 6.69827e-21 5.8663e-21 7.18416e-26 4.40263e-08 0.0584825 0.0306199 0.96938 
263 1.07987e-18 9.434e-21 9.41658e-21 7.18255e-26 4.65318e-08 0.0864612 0.0310186 0.968981 
264 1.00587e-18 1.29852e-20 1.40881e-20 7.18068e-26 5.03504e-08 0.124387 0.0314826 0.968517 
271 1.18086e-18 4.42845e-21 2.63807e-21 7.18507e-26 4.20454e-08 0.0330795 0.0303955 0.969605 
272 1.15112e-18 6.06921e-21 4.79688e-21 7.18455e-26 4.32755e-08 0.0488329 0.0305248 0.969475 
273 1.10629e-18 8.06008e-21 7.59314e-21 7.18352e-26 4.52465e-08 0.0722879 0.0307796 0.96922 
274 1.04794e-18 1.07402e-20 1.17307e-20 7.18417e-26 4.80454e-08 0.10254 0.030618 0.969382 
211 1.14959e-18 5.62562e-21 4.43016e-21 7.18336e-26 4.35271e-08 0.0514093 0.0308189 0.969181 
212 1.09445e-18 8.55193e-21 8.09042e-21 7.18053e-26 4.65739e-08 0.0813299 0.0315207 0.968479 
213 1.01845e-18 1.21872e-20 1.28406e-20 7.17913e-26 5.11364e-08 0.123484 0.0318676 0.968132 
214 9.06896e-19 1.71499e-20 1.94149e-20 7.17707e-26 5.88567e-08 0.18606 0.0323769 0.967623 
221 1.14945e-18 5.6061e-21 4.31696e-21 7.18346e-26 4.33157e-08 0.0513065 0.0307948 0.969205 
222 1.0919e-18 8.58615e-21 7.9343e-21 7.18154e-26 4.58918e-08 0.0814728 0.0312703 0.96873 
223 1.01285e-18 1.22851e-20 1.2811e-20 7.17965e-26 4.98387e-08 0.123172 0.0317387 0.968261 
224 9.02546e-19 1.71737e-20 1.93921e-20 7.17653e-26 5.67127e-08 0.18155 0.0325126 0.967487 
231 1.15266e-18 5.45071e-21 4.26561e-21 7.18401e-26 4.31573e-08 0.049197 0.0306581 0.969342 
232 1.09901e-18 8.21821e-21 7.75801e-21 7.18265e-26 4.55391e-08 0.077385 0.0309935 0.969007 
233 1.02316e-18 1.18885e-20 1.23899e-20 7.18015e-26 4.94045e-08 0.117488 0.0316145 0.968385 
234 9.14532e-19 1.68173e-20 1.90184e-20 7.17734e-26 5.59863e-08 0.174928 0.0323109 0.967689 
241 1.15621e-18 5.30014e-21 4.14432e-21 7.18436e-26 4.29838e-08 0.0472959 0.0305704 0.96943 
242 1.10728e-18 7.8784e-21 7.32288e-21 7.18332e-26 4.51611e-08 0.0729618 0.0308285 0.969171 
243 1.03809e-18 1.12634e-20 1.15073e-20 7.18106e-26 4.85698e-08 0.109018 0.0313883 0.968612 
244 9.38198e-19 1.57732e-20 1.76923e-20 7.17991e-26 5.44321e-08 0.161483 0.0316737 0.968326 
251 1.16273e-18 5.15048e-21 3.68222e-21 7.18441e-26 4.27746e-08 0.043458 0.0305587 0.969441 
252 1.11997e-18 7.28968e-21 6.45472e-21 7.18215e-26 4.46677e-08 0.0659089 0.0311182 0.968882 
253 1.0589e-18 1.04872e-20 1.03485e-20 7.18027e-26 4.7574e-08 0.0978099 0.0315851 0.968415 
254 9.70651e-19 1.46202e-20 1.57238e-20 7.17854e-26 5.24452e-08 0.143802 0.0320132 0.967987 
261 1.17089e-18 4.74052e-21 3.32019e-21 7.18478e-26 4.24182e-08 0.0387095 0.0304663 0.969534 
281 1.14089e-18 5.93432e-21 4.81112e-21 7.18337e-26 4.39558e-08 0.0561322 0.0308166 0.969183 
282 1.07979e-18 9.08293e-21 8.78972e-21 7.18197e-26 4.73024e-08 0.089171 0.0311626 0.968837 
176 7.02035e-19 2.55679e-20 3.13054e-20 7.17988e-26 7.55717e-08 0.285068 0.0316804 0.96832 
186 7.57283e-19 2.33783e-20 2.83103e-20 7.18217e-26 6.92953e-08 0.252454 0.0311128 0.968887 
196 8.26618e-19 2.04732e-20 2.48542e-20 7.18092e-26 6.28369e-08 0.213729 0.0314237 0.968576 
206 9.05922e-19 1.70522e-20 2.02091e-20 7.18422e-26 5.66452e-08 0.172399 0.030606 0.969394 
255 8.49298e-19 1.98407e-20 2.35591e-20 7.17763e-26 6.10043e-08 0.206451 0.0322397 0.96776 
5 9.42189e-19 1.46247e-20 1.59821e-20 7.17874e-26 5.52763e-08 0.165067 0.031964 0.968036 
15 9.3992e-19 1.4591e-20 1.59734e-20 7.18052e-26 5.44932e-08 0.163473 0.0315233 0.968477 
25 9.57339e-19 1.39395e-20 1.5269e-20 7.18071e-26 5.33433e-08 0.153633 0.0314743 0.968526 
35 9.82385e-19 1.31117e-20 1.41099e-20 7.1805e-26 5.18079e-08 0.139174 0.0315285 0.968471 
45 1.01127e-18 1.19552e-20 1.27343e-20 7.18226e-26 5.01527e-08 0.123211 0.0310901 0.96891 
55 1.04579e-18 1.05342e-20 1.10287e-20 7.18386e-26 4.83518e-08 0.104341 0.0306958 0.969304 
65 1.08514e-18 8.78664e-21 8.61016e-21 7.18324e-26 4.64128e-08 0.0835949 0.030848 0.969152 
75 8.72669e-19 1.82708e-20 2.09536e-20 7.1768e-26 6.16271e-08 0.206211 0.0324438 0.967556 
85 8.67143e-19 1.80461e-20 2.11826e-20 7.17837e-26 5.92448e-08 0.199794 0.0320541 0.967946 
95 8.83794e-19 1.77764e-20 2.00252e-20 7.17965e-26 5.78893e-08 0.189932 0.0317372 0.968263 
105 9.13616e-19 1.64682e-20 1.8742e-20 7.18056e-26 5.58664e-08 0.173457 0.0315131 0.968487 
115 9.51141e-19 1.49892e-20 1.65063e-20 7.18177e-26 5.35242e-08 0.153003 0.0312127 0.968787 
125 9.92693e-19 1.33512e-20 1.4477e-20 7.18164e-26 5.10388e-08 0.130283 0.0312457 0.968754 
135 1.04037e-18 1.10516e-20 1.17886e-20 7.18295e-26 4.84134e-08 0.105361 0.0309193 0.969081 
145 8.14047e-19 2.07376e-20 2.46849e-20 7.17739e-26 6.71094e-08 0.24047 0.0322974 0.967703 
155 8.04015e-19 2.08786e-20 2.52242e-20 7.17745e-26 6.45255e-08 0.23401 0.0322841 0.967716 
165 8.22965e-19 2.05263e-20 2.41432e-20 7.1777e-26 6.28448e-08 0.22277 0.0322218 0.967778 
175 8.56301e-19 1.92238e-20 2.23169e-20 7.1802e-26 6.02152e-08 0.204077 0.0316006 0.968399 
185 8.97547e-19 1.77039e-20 2.01768e-20 7.18287e-26 5.72176e-08 0.181348 0.0309396 0.96906 
195 9.44545e-19 1.57283e-20 1.77541e-20 7.1809e-26 5.40058e-08 0.155131 0.0314283 0.968572 
205 1.00071e-18 1.30094e-20 1.46741e-20 7.18304e-26 5.05079e-08 0.125677 0.030897 0.969103 
6 8.10793e-19 1.94504e-20 2.32346e-20 7.1797e-26 6.58877e-08 0.237033 0.0317261 0.968274 
16 8.11513e-19 1.93765e-20 2.26999e-20 7.17991e-26 6.45697e-08 0.231747 0.0316726 0.968327 
26 8.3761e-19 1.84392e-20 2.15224e-20 7.17951e-26 6.22834e-08 0.216726 0.0317722 0.968228 
36 8.74823e-19 1.73039e-20 1.99703e-20 7.18063e-26 5.92911e-08 0.195201 0.0314944 0.968506 
46 9.20477e-19 1.56905e-20 1.78218e-20 7.18177e-26 5.60614e-08 0.169737 0.0312125 0.968788 
56 9.73815e-19 1.35924e-20 1.51402e-20 7.1842e-26 5.26744e-08 0.140819 0.03061 0.96939 
66 1.02927e-18 1.15035e-20 1.2154e-20 7.1852e-26 4.94222e-08 0.111797 0.0303622 0.969638 
76 7.16149e-19 2.4497e-20 2.98993e-20 7.17795e-26 7.74534e-08 0.294603 0.0321606 0.967839 
86 7.10937e-19 2.4764e-20 2.97428e-20 7.17967e-26 7.42518e-08 0.282799 0.0317333 0.968267 
96 7.35375e-19 2.38092e-20 2.82107e-20 7.18034e-26 7.14098e-08 0.268076 0.0315674 0.968433 
106 7.7826e-19 2.20489e-20 2.62162e-20 7.18117e-26 6.71088e-08 0.243509 0.0313623 0.968638 
116 8.33213e-19 1.99718e-20 2.36009e-20 7.18079e-26 6.22741e-08 0.212799 0.0314565 0.968543 
126 8.98058e-19 1.76303e-20 2.03637e-20 7.18279e-26 5.7331e-08 0.177747 0.030961 0.969039 
136 9.65894e-19 1.45362e-20 1.63085e-20 7.18316e-26 5.27335e-08 0.142328 0.0308688 0.969131 
146 6.40619e-19 2.77233e-20 3.47099e-20 7.17797e-26 8.92643e-08 0.343526 0.0321557 0.967844 
156 6.30616e-19 2.81941e-20 3.52808e-20 7.17833e-26 8.53344e-08 0.328429 0.0320651 0.967935 
166 6.57391e-19 2.70122e-20 3.3667e-20 7.17945e-26 8.13932e-08 0.311747 0.031788 0.968212 
283 9.9625e-19 1.30254e-20 1.39541e-20 7.17997e-26 5.23947e-08 0.135611 0.0316588 0.968341 
284 8.74377e-19 1.88692e-20 2.16906e-20 7.17576e-26 6.1368e-08 0.204106 0.032704 0.967296 
291 1.14174e-18 5.92491e-21 4.86008e-21 7.18273e-26 4.36264e-08 0.0554257 0.030975 0.969025 
292 1.07933e-18 9.14022e-21 8.87602e-21 7.18076e-26 4.64571e-08 0.0880275 0.0314623 0.968538 
293 9.91861e-19 1.32454e-20 1.42753e-20 7.17837e-26 5.10653e-08 0.133848 0.0320552 0.967945 
294 8.68925e-19 1.87025e-20 2.15463e-20 7.17626e-26 5.93174e-08 0.199265 0.0325795 0.967421 
301 1.14343e-18 5.8967e-21 4.58138e-21 7.18421e-26 4.35662e-08 0.0544261 0.0306076 0.969392 
302 1.08308e-18 9.11964e-21 8.51614e-21 7.18096e-26 4.63061e-08 0.0858781 0.0314133 0.968587 
303 1.00019e-18 1.28046e-20 1.37766e-20 7.17958e-26 5.06435e-08 0.129652 0.0317561 0.968244 
304 8.84551e-19 1.8154e-20 2.09087e-20 7.17757e-26 5.82445e-08 0.190777 0.0322548 0.967745 
311 1.14998e-18 5.53315e-21 4.31185e-21 7.18318e-26 4.32307e-08 0.050594 0.0308624 0.969138 
312 1.09484e-18 8.49363e-21 8.0723e-21 7.18144e-26 4.57143e-08 0.0795966 0.0312946 0.968705 
313 1.01658e-18 1.22133e-20 1.29966e-20 7.18027e-26 4.97199e-08 0.120315 0.0315848 0.968415 
314 9.09071e-19 1.72545e-20 1.96675e-20 7.17706e-26 5.63573e-08 0.176367 0.0323791 0.967621 
321 1.15712e-18 5.27117e-21 4.06481e-21 7.18419e-26 4.29818e-08 0.0465391 0.0306122 0.969388 
322 1.10834e-18 7.83239e-21 7.37266e-21 7.18278e-26 4.51431e-08 0.0720186 0.0309616 0.969038 
323 1.03889e-18 1.11876e-20 1.17214e-20 7.17905e-26 4.86198e-08 0.108205 0.0318879 0.968112 
324 9.42655e-19 1.58321e-20 1.80721e-20 7.17801e-26 5.42281e-08 0.158014 0.0321454 0.967855 
331 1.16593e-18 4.9745e-21 3.71138e-21 7.18409e-26 4.26697e-08 0.0415562 0.0306386 0.969361 
332 1.12213e-18 7.14983e-21 6.52564e-21 7.18056e-26 4.45394e-08 0.0644396 0.0315114 0.968489 
333 1.06276e-18 1.02519e-20 1.04754e-20 7.17997e-26 4.7272e-08 0.0948806 0.0316597 0.96834 
334 9.79917e-19 1.45074e-20 1.55032e-20 7.18031e-26 5.19405e-08 0.138032 0.0315738 0.968426 
341 1.17537e-18 4.67378e-21 3.18039e-21 7.18604e-26 4.22731e-08 0.0364568 0.0301542 0.969846 
342 1.14202e-18 6.36881e-21 5.4699e-21 7.18422e-26 4.36917e-08 0.0539061 0.0306068 0.969393 
343 1.09261e-18 8.93231e-21 8.50659e-21 7.18197e-26 4.59095e-08 0.0795356 0.0311637 0.968836 
344 1.02631e-18 1.19704e-20 1.28226e-20 7.18121e-26 4.92821e-08 0.113724 0.0313508 0.968649 
351 1.13469e-18 6.15413e-21 5.13354e-21 7.18223e-26 4.41771e-08 0.0594484 0.0310994 0.968901 
352 1.06796e-18 9.5843e-21 9.36184e-21 7.17891e-26 4.78556e-08 0.0952115 0.0319225 0.968077 
353 9.77552e-19 1.37636e-20 1.4933e-20 7.17689e-26 5.35489e-08 0.145057 0.0324236 0.967576 
354 8.50392e-19 1.97698e-20 2.27364e-20 7.17491e-26 6.34555e-08 0.216394 0.032915 0.967085 
361 1.13357e-18 6.41695e-21 5.13939e-21 7.1821e-26 4.39947e-08 0.0598228 0.0311299 0.96887 
362 1.06674e-18 9.73405e-21 9.57328e-21 7.17985e-26 4.71588e-08 0.094635 0.0316886 0.968311 
363 9.75506e-19 1.41272e-20 1.52321e-20 7.17764e-26 5.2201e-08 0.142612 0.0322362 0.967764 
364 8.44586e-19 1.97287e-20 2.29498e-20 7.17615e-26 6.14046e-08 0.211829 0.0326069 0.967393 
371 1.13761e-18 6.23453e-21 5.05639e-21 7.18263e-26 4.38377e-08 0.057482 0.0310004 0.969 
372 1.07558e-18 9.4107e-21 9.0037e-21 7.18048e-26 4.67451e-08 0.0898182 0.0315318 0.968468 
373 9.85958e-19 1.37722e-20 1.48765e-20 7.17747e-26 5.15491e-08 0.136616 0.0322798 0.96772 
374 8.60543e-19 1.966e-20 2.26557e-20 7.17731e-26 6.00544e-08 0.202499 0.0323176 0.967682 
381 1.14367e-18 5.93558e-21 4.76307e-21 7.18294e-26 4.36343e-08 0.0541143 0.0309229 0.969077 
382 1.08473e-18 8.93341e-21 8.49078e-21 7.18087e-26 4.63642e-08 0.0848392 0.0314343 0.968566 
383 1.00136e-18 1.29665e-20 1.40842e-20 7.17954e-26 5.07197e-08 0.128445 0.0317655 0.968234 
384 8.88077e-19 1.8511e-20 2.13234e-20 7.17888e-26 5.81203e-08 0.187416 0.0319296 0.96807 
391 1.14941e-18 5.73883e-21 4.37588e-21 7.18362e-26 4.33197e-08 0.0505802 0.0307542 0.969246 
392 1.09698e-18 8.27643e-21 8.04588e-21 7.18197e-26 4.56889e-08 0.0781393 0.0311641 0.968836 
393 1.02328e-18 1.21102e-20 1.30113e-20 7.17959e-26 4.94557e-08 0.116124 0.0317526 0.968247 
394 9.21542e-19 1.69813e-20 1.95895e-20 7.17987e-26 5.57572e-08 0.169348 0.0316823 0.968318 
401 1.16035e-18 5.266e-21 3.77792e-21 7.18454e-26 4.2859e-08 0.0447451 0.0305274 0.969473 
402 1.11303e-18 7.79688e-21 7.37201e-21 7.18324e-26 4.49852e-08 0.0691336 0.030849 0.969151 
403 1.05096e-18 1.10086e-20 1.1638e-20 7.18204e-26 4.80634e-08 0.101449 0.0311453 0.968855 
404 9.60129e-19 1.52485e-20 1.74446e-20 7.18025e-26 5.32282e-08 0.148128 0.0315894 0.968411 
411 1.17018e-18 4.90128e-21 3.42567e-21 7.18498e-26 4.24763e-08 0.0392705 0.0304165 0.969584 
412 1.1337e-18 6.88623e-21 6.06547e-21 7.18267e-26 4.4047e-08 0.0581651 0.0309894 0.969011 
413 1.08198e-18 9.3201e-21 9.51489e-21 7.18201e-26 4.63812e-08 0.085007 0.0311532 0.968847 
414 1.0063e-18 1.28714e-20 1.43945e-20 7.1811e-26 5.0351e-08 0.123803 0.0313783 0.968622 
421 1.13028e-18 6.2794e-21 5.44201e-21 7.18172e-26 4.44457e-08 0.0619997 0.0312249 0.968775 
422 1.06188e-18 9.77822e-21 9.93313e-21 7.17959e-26 4.83455e-08 0.0988539 0.0317529 0.968247 
423 9.67374e-19 1.43483e-20 1.5936e-20 7.17765e-26 5.43376e-08 0.150269 0.0322348 0.967765 
424 8.33586e-19 2.0417e-20 2.4394e-20 7.17617e-26 6.50763e-08 0.224612 0.0326008 0.967399 
431 1.12896e-18 6.51014e-21 5.44804e-21 7.18257e-26 4.41795e-08 0.0621302 0.0310153 0.968985 
432 1.06061e-18 9.99425e-21 1.00646e-20 7.17955e-26 4.73954e-08 0.0973805 0.0317615 0.968238 
433 9.64602e-19 1.46104e-20 1.62767e-20 7.17785e-26 5.28529e-08 0.147329 0.0321851 0.967815 
434 8.29943e-19 2.06718e-20 2.40287e-20 7.17643e-26 6.2852e-08 0.218482 0.032536 0.967464 
441 1.1326e-18 6.33175e-21 5.26655e-21 7.18192e-26 4.40346e-08 0.0602662 0.0311746 0.968825 
442 1.06613e-18 9.90349e-21 9.91905e-21 7.18031e-26 4.72201e-08 0.0946734 0.0315755 0.968425 
443 9.73649e-19 1.44004e-20 1.58145e-20 7.17709e-26 5.23092e-08 0.142336 0.0323739 0.967626 
444 8.45378e-19 2.00576e-20 2.4051e-20 7.17527e-26 6.15006e-08 0.209594 0.0328246 0.967175 
451 1.13877e-18 6.20588e-21 5.15098e-21 7.18319e-26 4.37602e-08 0.05662 0.0308613 0.969139 
452 1.07841e-18 9.46594e-21 9.1982e-21 7.18191e-26 4.65717e-08 0.0877605 0.031177 0.968823 
453 9.90828e-19 1.35377e-20 1.46878e-20 7.18112e-26 5.13301e-08 0.13328 0.0313744 0.968626 
454 8.72689e-19 1.90462e-20 2.2564e-20 7.17976e-26 5.93623e-08 0.194689 0.0317101 0.96829 
455 7.17873e-19 2.59719e-20 3.21721e-20 7.1785e-26 7.45183e-08 0.276535 0.0320231 0.967977 
461 1.14639e-18 5.82677e-21 4.6792e-21 7.18425e-26 4.34909e-08 0.0525418 0.0305981 0.969402 
462 1.09028e-18 8.78301e-21 8.62562e-21 7.18266e-26 4.61726e-08 0.0816875 0.0309926 0.969007 
463 1.01319e-18 1.26324e-20 1.38007e-20 7.18145e-26 5.01584e-08 0.121455 0.0312908 0.968709 
464 9.06484e-19 1.78634e-20 2.10643e-20 7.17973e-26 5.69294e-08 0.176443 0.0317194 0.968281 
465 7.64838e-19 2.39542e-20 2.97602e-20 7.17961e-26 6.93151e-08 0.250111 0.0317467 0.968253 
471 1.15622e-18 5.39367e-21 4.18613e-21 7.18491e-26 4.31049e-08 0.046981 0.0304352 0.969565 
472 1.10613e-18 8.16581e-21 7.7341e-21 7.18231e-26 4.53583e-08 0.0728461 0.0310786 0.968921 
473 1.04024e-18 1.1614e-20 1.2263e-20 7.18026e-26 4.86496e-08 0.106801 0.0315862 0.968414 
474 9.47503e-19 1.62641e-20 1.86239e-20 7.17928e-26 5.41409e-08 0.154278 0.0318308 0.968169 
475 8.2156e-19 2.19502e-20 2.64677e-20 7.18054e-26 6.39416e-08 0.219313 0.0315173 0.968483 
481 1.16772e-18 5.05996e-21 3.4951e-21 7.1846e-26 4.25912e-08 0.0404955 0.0305124 0.969488 
482 1.12938e-18 7.25324e-21 6.36333e-21 7.18379e-26 4.42173e-08 0.0605914 0.0307131 0.969287 
483 1.07391e-18 9.85378e-21 1.01771e-20 7.18248e-26 4.68283e-08 0.0892449 0.0310368 0.968963 
484 9.95013e-19 1.37736e-20 1.52965e-20 7.18215e-26 5.10497e-08 0.12964 0.031119 0.968881 
485 8.87849e-19 1.88336e-20 2.19182e-20 7.18013e-26 5.81945e-08 0.183493 0.0316183 0.968382 
306 5.39257e-19 3.22552e-20 4.10428e-20 7.18035e-26 1.03301e-07 0.379815 0.0315644 0.968436 
316 5.88495e-19 3.08116e-20 3.92021e-20 7.18225e-26 9.35687e-08 0.349331 0.0310932 0.968907 
326 6.50897e-19 2.87767e-20 3.60436e-20 7.1822e-26 8.34787e-08 0.312617 0.0311056 0.968894 
336 7.21616e-19 2.56155e-20 3.2074e-20 7.18306e-26 7.39943e-08 0.270608 0.0308918 0.969108 
346 8.10407e-19 2.18399e-20 2.67864e-20 7.18295e-26 6.45173e-08 0.22148 0.0309196 0.96908 
356 4.7082e-19 3.4221e-20 4.41983e-20 7.18243e-26 1.29278e-07 0.447274 0.0310487 0.968951 
366 4.70031e-19 3.43402e-20 4.4134e-20 7.17926e-26 1.21704e-07 0.421104 0.0318352 0.968165 
376 5.05046e-19 3.37418e-20 4.32689e-20 7.1812e-26 1.12152e-07 0.398834 0.0313548 0.968645 
386 5.53859e-19 3.25088e-20 4.15582e-20 7.18321e-26 1.00776e-07 0.36819 0.0308563 0.969144 
215 7.57748e-19 2.36214e-20 2.84955e-20 7.17628e-26 7.28753e-08 0.272652 0.0325739 0.967426 
225 7.48847e-19 2.38839e-20 2.84209e-20 7.17426e-26 7.00819e-08 0.263975 0.033074 0.966926 
235 7.7098e-19 2.32869e-20 2.74696e-20 7.17724e-26 6.80095e-08 0.251666 0.0323368 0.967663 
245 8.05415e-19 2.14714e-20 2.59046e-20 7.1778e-26 6.46907e-08 0.231521 0.0321978 0.967802 
285 7.12366e-19 2.55137e-20 3.12378e-20 7.17601e-26 7.8479e-08 0.29861 0.0326407 0.967359 
295 7.03447e-19 2.5905e-20 3.16576e-20 7.176e-26 7.54896e-08 0.288654 0.0326427 0.967357 
305 7.2593e-19 2.4896e-20 3.06135e-20 7.1769e-26 7.28872e-08 0.275198 0.0324189 0.967581 
315 7.63919e-19 2.33902e-20 2.86978e-20 7.1778e-26 6.88068e-08 0.253195 0.0321965 0.967803 
325 8.12403e-19 2.16712e-20 2.61227e-20 7.18011e-26 6.43756e-08 0.226202 0.031623 0.968377 
335 8.66269e-19 1.93962e-20 2.2999e-20 7.1801e-26 5.9796e-08 0.196514 0.0316276 0.968372 
345 9.30907e-19 1.62277e-20 1.87463e-20 7.1815e-26 5.49864e-08 0.161974 0.0312786 0.968721 
355 6.78311e-19 2.68846e-20 3.303e-20 7.17625e-26 8.31244e-08 0.316428 0.032581 0.967419 
365 6.7051e-19 2.7172e-20 3.35787e-20 7.17537e-26 7.99692e-08 0.30552 0.0327998 0.9672 
375 6.99066e-19 2.62782e-20 3.18232e-20 7.17772e-26 7.63003e-08 0.289089 0.0322169 0.967783 
385 7.35212e-19 2.49998e-20 3.09001e-20 7.17963e-26 7.2169e-08 0.268477 0.0317417 0.968258 
395 7.827e-19 2.32247e-20 2.85898e-20 7.18034e-26 6.72656e-08 0.241758 0.0315659 0.968434 
405 8.39248e-19 2.09644e-20 2.48891e-20 7.17859e-26 6.2161e-08 0.210019 0.0320006 0.967999 
415 9.05386e-19 1.75756e-20 2.10671e-20 7.18103e-26 5.69071e-08 0.175168 0.0313961 0.968604 
425 6.58026e-19 2.75486e-20 3.47516e-20 7.17636e-26 8.6448e-08 0.325704 0.0325548 0.967445 
435 6.53987e-19 2.79417e-20 3.47075e-20 7.17556e-26 8.27643e-08 0.312768 0.0327522 0.967248 
445 6.7867e-19 2.74506e-20 3.38653e-20 7.17814e-26 7.93536e-08 0.298429 0.0321136 0.967886 
265 9.01538e-19 1.76053e-20 2.09293e-20 7.18061e-26 5.70644e-08 0.178005 0.0314992 0.968501 
275 9.61513e-19 1.48604e-20 1.7198e-20 7.18266e-26 5.29538e-08 0.14603 0.030993 0.969007 
7 6.44865e-19 2.5589e-20 3.12335e-20 7.18201e-26 8.63906e-08 0.328083 0.0311542 0.968846 
8 4.60446e-19 3.04712e-20 3.88204e-20 7.18865e-26 1.30172e-07 0.432256 0.0295087 0.970491 
17 6.53433e-19 2.52078e-20 3.10872e-20 7.18237e-26 8.34614e-08 0.316221 0.0310651 0.968935 
18 4.76124e-19 3.02779e-20 3.82778e-20 7.19071e-26 1.22829e-07 0.413008 0.0290001 0.971 
27 6.88787e-19 2.39883e-20 2.9311e-20 7.18353e-26 7.86094e-08 0.295345 0.0307776 0.969222 
28 5.22949e-19 2.92518e-20 3.73874e-20 7.18962e-26 1.10178e-07 0.382246 0.0292698 0.97073 
37 7.43119e-19 2.22735e-20 2.70859e-20 7.18372e-26 7.22355e-08 0.26377 0.0307301 0.96927 
38 5.97042e-19 2.71315e-20 3.43065e-20 7.18818e-26 9.44555e-08 0.336437 0.0296252 0.970375 
47 8.09049e-19 2.01223e-20 2.41678e-20 7.1837e-26 6.54405e-08 0.225518 0.0307335 0.969267 
48 6.9105e-19 2.47056e-20 3.09718e-20 7.18697e-26 7.97792e-08 0.28184 0.0299255 0.970074 
57 8.85131e-19 1.76623e-20 2.049e-20 7.18358e-26 5.91029e-08 0.183943 0.0307641 0.969236 
58 7.91875e-19 2.16007e-20 2.69587e-20 7.18761e-26 6.81303e-08 0.226554 0.0297663 0.970234 
67 9.61175e-19 1.44778e-20 1.66887e-20 7.1847e-26 5.37058e-08 0.144182 0.0304878 0.969512 
68 8.9346e-19 1.80449e-20 2.14665e-20 7.18755e-26 5.90115e-08 0.173925 0.0297812 0.970219 
77 5.30931e-19 3.13428e-20 3.95879e-20 7.18349e-26 1.10269e-07 0.402601 0.0307876 0.969212 
78 3.33905e-19 3.59224e-20 4.68318e-20 7.19212e-26 1.9405e-07 0.53145 0.028652 0.971348 
87 5.27932e-19 3.10787e-20 3.93338e-20 7.18394e-26 1.05198e-07 0.382982 0.0306752 0.969325 
88 3.36332e-19 3.55601e-20 4.60604e-20 7.19248e-26 1.82319e-07 0.500147 0.0285619 0.971438 
97 5.59834e-19 2.9878e-20 3.75369e-20 7.18377e-26 9.81364e-08 0.361374 0.0307183 0.969282 
98 3.73549e-19 3.45888e-20 4.49481e-20 7.19269e-26 1.60104e-07 0.467447 0.0285114 0.971489 
107 6.16515e-19 2.80898e-20 3.4872e-20 7.18534e-26 8.81064e-08 0.327354 0.0303289 0.969671 
108 4.40863e-19 3.29723e-20 4.23574e-20 7.19301e-26 1.32017e-07 0.420216 0.0284321 0.971568 
117 6.9153e-19 2.56506e-20 3.14863e-20 7.18524e-26 7.74412e-08 0.283553 0.0303528 0.969647 
118 5.36449e-19 3.08164e-20 3.93921e-20 7.19119e-26 1.05252e-07 0.35923 0.028883 0.971117 
127 7.79242e-19 2.25287e-20 2.7774e-20 7.18552e-26 6.76475e-08 0.234837 0.0302832 0.969717 
128 6.53494e-19 2.74591e-20 3.51287e-20 7.19049e-26 8.36737e-08 0.291392 0.0290555 0.970945 
137 8.75144e-19 1.86727e-20 2.26553e-20 7.18498e-26 5.91647e-08 0.184498 0.0304175 0.969582 
138 7.79986e-19 2.32294e-20 2.9311e-20 7.18905e-26 6.82452e-08 0.2255 0.0294107 0.970589 
147 4.43653e-19 3.49848e-20 4.53137e-20 7.18492e-26 1.39046e-07 0.46962 0.0304321 0.969568 
148 2.53761e-19 3.86613e-20 5.07312e-20 7.19656e-26 2.80931e-07 0.623182 0.0275568 0.972443 
157 4.37832e-19 3.48957e-20 4.5104e-20 7.18616e-26 1.31875e-07 0.44179 0.0301258 0.969874 
158 2.54131e-19 3.84642e-20 5.06877e-20 7.19803e-26 2.61078e-07 0.577743 0.027194 0.972806 
167 4.69661e-19 3.39007e-20 4.29161e-20 7.18605e-26 1.21072e-07 0.417457 0.0301522 0.969848 
168 2.85089e-19 3.77507e-20 4.94489e-20 7.19664e-26 2.24871e-07 0.541507 0.0275361 0.972464 
177 5.21431e-19 3.20564e-20 4.06703e-20 7.18481e-26 1.07172e-07 0.382387 0.0304594 0.969541 
178 3.36836e-19 3.64331e-20 4.75902e-20 7.1957e-26 1.83099e-07 0.49359 0.0277673 0.972233 
187 5.92021e-19 2.96499e-20 3.75815e-20 7.18688e-26 9.24975e-08 0.337372 0.0299485 0.970052 
188 4.182e-19 3.46023e-20 4.50638e-20 7.19404e-26 1.41159e-07 0.430364 0.0281787 0.971821 
197 6.87006e-19 2.63543e-20 3.36436e-20 7.18581e-26 7.81559e-08 0.282526 0.0302129 0.969787 
198 5.32834e-19 3.18551e-20 4.16053e-20 7.19213e-26 1.06244e-07 0.356023 0.0286506 0.971349 
207 7.9463e-19 2.22166e-20 2.77565e-20 7.18451e-26 6.60544e-08 0.22449 0.030533 0.969467 
208 6.73579e-19 2.76761e-20 3.55628e-20 7.19029e-26 8.07034e-08 0.27708 0.0291051 0.970895 
307 3.51026e-19 3.8295e-20 5.05902e-20 7.19059e-26 1.75283e-07 0.501907 0.0290312 0.970969 
308 1.81565e-19 3.82686e-20 5.08888e-20 7.20485e-26 4.10906e-07 0.663035 0.0255115 0.974488 
317 4.02264e-19 3.72893e-20 4.88297e-20 7.18878e-26 1.48804e-07 0.46198 0.029478 0.970522 
318 2.28604e-19 3.94238e-20 5.25429e-20 7.20208e-26 3.07048e-07 0.601978 0.0261948 0.973805 
327 4.66668e-19 3.53928e-20 4.56663e-20 7.18853e-26 1.24564e-07 0.415477 0.0295382 0.970462 
328 2.89598e-19 3.87917e-20 5.14469e-20 7.19891e-26 2.27267e-07 0.534817 0.026977 0.973023 