ITEM: TIMESTEP
11000
ITEM: NUMBER OF SURFS
20883
ITEM: BOX BOUNDS oo ro oo
-2.505 0.895
0 2.5
-2.5 2.5
ITEM: SURFS id f_3[1] f_3[2] f_3[3] f_3[4] f_3[5] f_3[6] 
1 0.96736 2187.57 0.034 0 0.001 0.033 
9 1.13253 2990.39 0.011 0 0.001 0.01 
17 2.20458 7571.27 0.004 0 0.001 0.003 
25 0 0 0 0 0 0 
33 0 0 0 0 0 0 
41 0 0 0 0 0 0 
49 0 0 0 0 0 0 
57 0 0 0 0 0 0 
65 0 0 0 0 0 0 
73 0 0 0 0 0 0 
81 0 0 0 0 0 0 
89 0 0 0 0 0 0 
97 0 0 0 0 0 0 
105 0 0 0 0 0 0 
113 0.913433 4939.4 0.001 0 0 0.001 
121 0 0 0 0 0 0 
129 0 0 0 0 0 0 
137 0 0 0 0 0 0 
145 0 0 0 0 0 0 
153 5.35795 11139.9 0.003 0 0 0.003 
161 1.49035 3690.21 0.003 0 0 0.003 
169 0.561053 1327.37 0.003 0 0 0.003 
177 2.14267 4673.77 0.045 0 0.002 0.043 
185 0 0 0 0 0 0 
193 1.12993 2959.73 4.536 0 0.172 4.364 
201 1.14919 3068.87 4.119 0 0.18 3.939 
209 1.18817 3269.86 3.553 0 0.149 3.404 
217 1.37893 3683.94 3.147 0 0.13 3.017 
225 1.57834 4010.75 2.74 0 0.098 2.642 
233 1.6919 4109.81 4.151 0 0.15 4.001 
241 1.71731 3982.69 5.223 0 0.2 5.023 
249 1.74715 4039.68 6.216 0 0.228 5.988 
257 1.06034 2730.59 4.32 0 0.176 4.144 
265 1.09997 2925.17 4.029 0 0.145 3.884 
273 1.08118 2965.63 3.246 0 0.125 3.121 
281 1.27562 3366.17 2.957 0 0.091 2.866 
289 1.40532 3547.84 2.611 0 0.094 2.517 
297 1.49487 3650.13 3.706 0 0.128 3.578 
305 1.54813 3669.03 4.861 0 0.169 4.692 
313 1.6161 3730.31 5.994 0 0.244 5.75 
321 1.01994 2668.72 4.149 0 0.163 3.986 
329 0.993556 2622.57 3.71 0 0.133 3.577 
337 1.02199 2803.04 3.087 0 0.12 2.967 
345 1.16481 3127.71 2.781 0 0.112 2.669 
353 1.29799 3311.92 2.461 0 0.082 2.379 
361 1.39816 3405.11 3.496 0 0.133 3.363 
369 1.45819 3432.83 4.651 0 0.151 4.5 
377 1.47863 3379.87 5.561 0 0.205 5.356 
385 0.995999 2540.55 4.061 0 0.142 3.919 
393 0.964057 2583.57 3.57 0 0.154 3.416 
401 1.00477 2724.38 3.074 0 0.115 2.959 
409 1.1133 2967.42 2.651 0 0.114 2.537 
417 1.20561 3049.25 2.321 0 0.081 2.24 
425 1.42786 3544.96 3.539 0 0.164 3.375 
433 1.46384 3440.82 4.715 0 0.189 4.526 
441 1.45793 3350.36 5.478 0 0.217 5.261 
449 0.96088 2487.61 4.002 0 0.152 3.85 
457 0.942437 2490.99 3.473 0 0.155 3.318 
465 1.02094 2761.78 3.12 0 0.124 2.996 
473 1.11676 2990.16 2.564 0 0.105 2.459 
481 1.24173 3144.7 2.375 0 0.086 2.289 
489 1.32262 3268.45 3.277 0 0.105 3.172 
497 1.44874 3442.15 4.504 0 0.18 4.324 
505 1.4083 3270.72 5.168 0 0.18 4.988 
513 0.945897 2415.06 3.872 0 0.145 3.727 
521 0.963726 2490.01 3.478 0 0.133 3.345 
529 1.0006 2688.41 3.004 0 0.106 2.898 
537 1.09027 2973.61 2.472 0 0.096 2.376 
545 1.22512 3100.3 2.316 0 0.102 2.214 
553 1.3338 3310.84 3.253 0 0.109 3.144 
561 1.39968 3302.9 4.427 0 0.146 4.281 
569 1.3581 3096.24 5.072 0 0.19 4.882 
577 0.930056 2358.81 3.747 0 0.107 3.64 
585 0.953039 2487.94 3.425 0 0.147 3.278 
593 0.994125 2642.58 2.964 0 0.111 2.853 
601 1.10749 2954.31 2.546 0 0.093 2.453 
609 1.18713 3025.01 2.276 0 0.104 2.172 
617 1.2968 3152.15 3.287 0 0.137 3.15 
625 1.32821 3122.11 4.169 0 0.138 4.031 
633 1.37853 3171.04 5.005 0 0.193 4.812 
641 0.937767 2398.1 3.831 0 0.159 3.672 
649 0.932337 2462.16 3.29 0 0.147 3.143 
657 0.978519 2611.24 2.889 0 0.117 2.772 
665 0.992975 2615.32 2.376 0 0.104 2.272 
673 1.16085 2980.68 2.278 0 0.078 2.2 
681 1.21689 3010.31 3.14 0 0.115 3.025 
689 1.35774 3192.19 4.19 0 0.162 4.028 
697 1.32732 3033.84 4.876 0 0.178 4.698 
705 0.97033 2529.41 3.763 0 0.13 3.633 
713 1.05308 2862.42 3.459 0 0.129 3.33 
721 1.00625 2684.59 2.962 0 0.115 2.847 
729 1.07098 2844.71 2.555 0 0.102 2.453 
737 1.27249 3290.72 2.428 0 0.094 2.334 
745 1.30458 3230.27 3.26 0 0.115 3.145 
753 1.33037 3127.3 4.087 0 0.14 3.947 
761 1.38751 3231.19 4.928 0 0.179 4.749 
769 0.95659 2449.32 3.747 0 0.129 3.618 
777 0.99212 2653.87 3.356 0 0.133 3.223 
785 1.00719 2623.43 3.036 0 0.133 2.903 
793 1.07404 2811.98 2.584 0 0.089 2.495 
801 1.18323 3070.15 2.349 0 0.086 2.263 
809 1.27925 3149.22 3.25 0 0.102 3.148 
817 1.32383 3183.48 4.05 0 0.143 3.907 
825 1.31074 3024.2 4.677 0 0.178 4.499 
833 0.92606 2368.97 3.567 0 0.126 3.441 
841 0.951951 2536.26 3.166 0 0.142 3.024 
849 1.0322 2721.22 3.056 0 0.134 2.922 
857 1.0617 2729.01 2.594 0 0.092 2.502 
865 1.13738 2872.88 2.309 0 0.104 2.205 
873 1.22122 3060.36 3.015 0 0.104 2.911 
881 1.35204 3279.09 4.051 0 0.115 3.936 
889 1.33582 3117.22 4.691 0 0.218 4.473 
897 0.94907 2440.02 3.623 0 0.128 3.495 
905 0.988155 2585.97 3.295 0 0.109 3.186 
913 0.981955 2530.36 2.861 0 0.121 2.74 
921 1.06036 2716.45 2.589 0 0.105 2.484 
929 1.12596 2825.02 2.301 0 0.086 2.215 
937 1.18425 2894.84 3.034 0 0.126 2.908 
945 1.27655 3048.56 3.738 0 0.136 3.602 
953 1.28154 2943.07 4.456 0 0.167 4.289 
961 0.978337 2528.54 3.633 0 0.134 3.499 
969 0.977661 2540.99 3.261 0 0.125 3.136 
977 0.988349 2587.02 2.862 0 0.117 2.745 
985 1.07096 2774.86 2.562 0 0.106 2.456 
993 1.15317 2891.96 2.31 0 0.098 2.212 
1001 1.18567 2906.48 3.016 0 0.113 2.903 
1009 1.29535 3059.35 3.773 0 0.14 3.633 
1017 1.33086 3086.68 4.459 0 0.166 4.293 
1025 0.977189 2497.17 3.626 0 0.136 3.49 
1033 0.955135 2444.91 3.136 0 0.101 3.035 
1041 1.02203 2632.11 2.887 0 0.126 2.761 
1049 1.06513 2724.2 2.584 0 0.087 2.497 
1057 1.16594 2901.77 2.423 0 0.085 2.338 
1065 1.21646 2956.44 3.075 0 0.116 2.959 
1073 1.29896 3109.42 3.718 0 0.154 3.564 
1081 1.29424 3039.19 4.245 0 0.176 4.069 
1089 0.989601 2497.76 3.587 0 0.115 3.472 
1097 0.926011 2345.35 3.012 0 0.113 2.899 
1105 0.98965 2527.5 2.776 0 0.081 2.695 
1113 1.04971 2639.36 2.58 0 0.085 2.495 
1121 1.1676 2973.72 2.398 0 0.077 2.321 
1129 1.19657 2937.98 3.008 0 0.118 2.89 
1137 1.20611 2888.41 3.46 0 0.137 3.323 
1145 1.30833 3008.13 4.237 0 0.162 4.075 
1153 1.02504 2572.15 3.64 0 0.13 3.51 
1161 0.93815 2398.11 2.884 0 0.116 2.768 
1169 1.03001 2622.7 2.846 0 0.108 2.738 
1177 1.06375 2690.28 2.618 0 0.107 2.511 
1185 1.12919 2801.51 2.392 0 0.11 2.282 
1193 1.12832 2698.45 2.898 0 0.107 2.791 
1201 1.29078 3031.08 3.611 0 0.134 3.477 
1209 1.25063 2870.91 3.965 0 0.158 3.807 
1217 0.966957 2429.95 3.37 0 0.112 3.258 
1225 1.02525 2672.82 3.001 0 0.111 2.89 
1233 1.02301 2644.68 2.783 0 0.129 2.654 
1241 1.07522 2739.92 2.536 0 0.098 2.438 
1249 1.12617 2765.95 2.406 0 0.097 2.309 
1257 1.16099 2834.44 2.82 0 0.102 2.718 
1265 1.22316 2835.34 3.452 0 0.111 3.341 
1273 1.30782 3097.5 3.89 0 0.127 3.763 
1281 0.942453 2390.26 3.293 0 0.13 3.163 
1289 1.05866 2687.64 3.028 0 0.103 2.925 
1297 1.09115 2769.57 2.806 0 0.113 2.693 
1305 1.1205 2827.8 2.603 0 0.098 2.505 
1313 1.16035 2950.54 2.384 0 0.093 2.291 
1321 1.22411 3031.03 2.918 0 0.118 2.8 
1329 1.27606 3010.27 3.461 0 0.128 3.333 
1337 1.26182 3001.51 3.692 0 0.122 3.57 
1345 0.968679 2420.67 3.203 0 0.119 3.084 
1353 1.02112 2651.36 2.817 0 0.1 2.717 
1361 1.07575 2766.33 2.829 0 0.094 2.735 
1369 1.11912 2800.96 2.673 0 0.101 2.572 
1377 1.18446 2924.9 2.478 0 0.081 2.397 
1385 1.1807 2901.57 2.941 0 0.11 2.831 
1393 1.23995 2929.12 3.281 0 0.124 3.157 
1401 1.25826 2909.61 3.621 0 0.141 3.48 
1409 1.01582 2553.79 3.19 0 0.106 3.084 
1417 0.981412 2531.25 2.726 0 0.112 2.614 
1425 1.05568 2649.67 2.71 0 0.089 2.621 
1433 1.04428 2559.67 2.567 0 0.085 2.482 
1441 1.1413 2796.52 2.473 0 0.079 2.394 
1449 1.16962 2802.86 2.884 0 0.115 2.769 
1457 1.27898 3037.09 3.381 0 0.125 3.256 
1465 1.30971 3010.86 3.641 0 0.13 3.511 
1473 0.981238 2498.36 3.046 0 0.1 2.946 
1481 1.02348 2563.44 2.772 0 0.101 2.671 
1489 0.991851 2455.6 2.653 0 0.112 2.541 
1497 1.0672 2655.62 2.556 0 0.077 2.479 
1505 1.11834 2707.7 2.462 0 0.086 2.376 
1513 1.13329 2701.02 2.814 0 0.104 2.71 
1521 1.18017 2809.27 3.019 0 0.124 2.895 
1529 1.24464 2897.14 3.395 0 0.132 3.263 
1537 0.983294 2448.21 2.997 0 0.114 2.883 
1545 1.04028 2636.66 2.636 0 0.101 2.535 
1553 1.03031 2568.78 2.549 0 0.097 2.452 
1561 1.08796 2677.44 2.592 0 0.103 2.489 
1569 1.16864 2878.04 2.567 0 0.091 2.476 
1577 1.15744 2796.39 2.787 0 0.102 2.685 
1585 1.23658 2991.25 3.021 0 0.122 2.899 
1593 1.29177 2980.57 3.328 0 0.116 3.212 
1601 0.918292 2302.13 2.662 0 0.103 2.559 
1609 0.967882 2402.03 2.452 0 0.089 2.363 
1617 1.02639 2516.82 2.61 0 0.091 2.519 
1625 1.06937 2653.12 2.569 0 0.081 2.488 
1633 1.15982 2816.45 2.578 0 0.1 2.478 
1641 1.12655 2714.32 2.744 0 0.106 2.638 
1649 1.19532 2810.11 2.972 0 0.099 2.873 
1657 1.23684 2875.01 3.165 0 0.095 3.07 
1665 0.912408 2200.82 2.601 0 0.092 2.509 
1673 1.04157 2614.49 2.527 0 0.104 2.423 
1681 1.01348 2481.66 2.54 0 0.105 2.435 
1689 1.04073 2575.01 2.505 0 0.1 2.405 
1697 1.10131 2760.1 2.451 0 0.096 2.355 
1705 1.17531 2842.26 2.837 0 0.1 2.737 
1713 1.22117 2890.11 2.968 0 0.111 2.857 
1721 1.23518 2888.43 3.021 0 0.099 2.922 
1729 0.937517 2322.4 2.485 0 0.101 2.384 
1737 0.984471 2491.09 2.298 0 0.09 2.208 
1745 1.03815 2523.1 2.557 0 0.097 2.46 
1753 1.0216 2471.93 2.495 0 0.093 2.402 
1761 1.08173 2647.1 2.506 0 0.09 2.416 
1769 1.13303 2673.6 2.771 0 0.108 2.663 
1777 1.20413 2783.53 2.849 0 0.106 2.743 
1785 1.21306 2871.12 2.82 0 0.098 2.722 
1793 1.01817 2565.85 2.394 0 0.083 2.311 
1801 1.03272 2576.73 2.244 0 0.067 2.177 
1809 1.05653 2587.03 2.523 0 0.101 2.422 
1817 1.1262 2788.52 2.678 0 0.09 2.588 
1825 1.23083 3013.11 2.752 0 0.099 2.653 
1833 1.21411 2942.67 2.845 0 0.107 2.738 
1841 1.25827 3032.94 2.882 0 0.103 2.779 
1849 1.24634 2966 2.672 0 0.094 2.578 
1857 1.03838 2630.08 2.257 0 0.087 2.17 
1865 1.06981 2662.72 2.215 0 0.074 2.141 
1873 1.0613 2571.07 2.515 0 0.097 2.418 
1881 1.11889 2752.86 2.672 0 0.085 2.587 
1889 1.15631 2838.61 2.642 0 0.106 2.536 
1897 1.17309 2833.31 2.779 0 0.122 2.657 
1905 1.22288 2955.07 2.767 0 0.101 2.666 
1913 1.24516 2947.3 2.597 0 0.085 2.512 
1921 0.973951 2410.49 1.995 0 0.077 1.918 
1929 1.00856 2509.56 2.048 0 0.072 1.976 
1937 1.09042 2717.03 2.422 0 0.088 2.334 
1945 1.10635 2690.73 2.699 0 0.078 2.621 
1953 1.14491 2773.21 2.75 0 0.094 2.656 
1961 1.16182 2748.97 2.901 0 0.109 2.792 
1969 1.25492 3005.74 2.773 0 0.112 2.661 
1977 1.23239 2894.85 2.429 0 0.105 2.324 
1985 1.0123 2540.68 1.816 0 0.077 1.739 
1993 1.00571 2457.61 2.015 0 0.067 1.948 
2001 1.04789 2578.18 2.38 0 0.089 2.291 
2009 1.13955 2853.25 2.758 0 0.084 2.674 
2017 1.12755 2654.61 2.773 0 0.107 2.666 
2025 1.15778 2768.65 2.815 0 0.12 2.695 
2033 1.20462 2855.27 2.722 0 0.099 2.623 
2041 1.22343 2870.19 2.305 0 0.081 2.224 
2049 0.973968 2427.57 1.499 0 0.06 1.439 
2057 0.974335 2387.09 1.891 0 0.087 1.804 
2065 1.11445 2780.81 2.523 0 0.08 2.443 
2073 1.08779 2621.67 2.707 0 0.105 2.602 
2081 1.12855 2813.81 2.782 0 0.115 2.667 
2089 1.13064 2628.18 2.889 0 0.094 2.795 
2097 1.17539 2724.83 2.69 0 0.109 2.581 
2105 1.21631 2850.21 2.194 0 0.074 2.12 
2113 1.0162 2545.74 1.164 0 0.059 1.105 
2121 1.01578 2511.71 1.934 0 0.064 1.87 
2129 1.05981 2606.79 2.592 0 0.088 2.504 
2137 1.08833 2633.02 2.914 0 0.105 2.809 
2145 1.07704 2607.52 2.882 0 0.111 2.771 
2153 1.1001 2597.17 2.893 0 0.104 2.789 
2161 1.13208 2700.95 2.62 0 0.115 2.505 
2169 1.23356 2946.11 2.14 0 0.077 2.063 
2177 1.05108 2606.98 0.649 0 0.019 0.63 
2185 0.998519 2497.3 2.11 0 0.071 2.039 
2193 1.05815 2590.12 2.855 0 0.112 2.743 
2201 1.0119 2436.15 3.084 0 0.116 2.968 
2209 1.10087 2641.05 3.378 0 0.124 3.254 
2217 1.1393 2697.24 3.28 0 0.089 3.191 
2225 1.16825 2746.08 3.042 0 0.126 2.916 
2233 1.14622 2719.68 2.292 0 0.072 2.22 
2241 0 0 0 0 0 0 
2249 0 0 0 0 0 0 
2257 0 0 0 0 0 0 
2265 0 0 0 0 0 0 
2273 0.0113767 38.3743 0.006 0 0.001 0.005 
2281 0.00833636 49.4514 0.006 0 0.001 0.005 
2289 0.0156505 64.2284 0.008 0 0.001 0.007 
2297 0.0267312 150.94 0.011 0 0 0.011 
2305 0.0599549 340.884 0.023 0 0 0.023 
2313 0.11827 585.393 0.045 0 0.004 0.041 
2321 0.183299 972.772 0.062 0 0.001 0.061 
2329 0.263256 1170.03 0.075 0 0.002 0.073 
2337 0.388154 1569.34 0.107 0 0.001 0.106 
2345 0.607228 2174.65 0.161 0 0.006 0.155 
2353 0.746399 2454.97 0.18 0 0.007 0.173 
2361 0.931968 2836.37 0.234 0 0.007 0.227 
2369 0.856843 2420.87 0.233 0 0.007 0.226 
2377 0.930923 2506.84 0.471 0 0.027 0.444 
2385 1.01094 2713.17 0.904 0 0.023 0.881 
2393 1.00261 2642.91 1.558 0 0.052 1.506 
2401 1.12835 3039.54 2.634 0 0.1 2.534 
2409 1.03987 2704.24 3.468 0 0.127 3.341 
2417 1.1088 2828.93 4.464 0 0.183 4.281 
2425 1.09537 2867.69 4.606 0 0.2 4.406 
2433 0.00581972 12.3385 0.001 0 0 0.001 
2441 0 0 0 0 0 0 
2449 0.00699064 35.6982 0.004 0 0 0.004 
2457 0.00257472 3.75189 0.001 0 0 0.001 
2465 0.00937989 25.8536 0.005 0 0 0.005 
2473 0.0154166 50.775 0.008 0 0 0.008 
2481 0.017828 71.1182 0.007 0 0 0.007 
2489 0.0350356 162.399 0.014 0 0.001 0.013 
2497 0.0607307 212.444 0.019 0 0 0.019 
2505 0.117426 590.06 0.046 0 0.002 0.044 
2513 0.214338 903.452 0.066 0 0.005 0.061 
2521 0.304677 1198.05 0.094 0 0.004 0.09 
2529 0.435657 1492 0.119 0 0.007 0.112 
2537 0.575448 2120.17 0.155 0 0.003 0.152 
2545 0.603898 1820.2 0.164 0 0.007 0.157 
2553 0.802882 2257.04 0.218 0 0.011 0.207 
2561 0.819307 2187.34 0.235 0 0.008 0.227 
2569 0.858742 2541.53 0.454 0 0.013 0.441 
2577 0.893593 2357.86 0.849 0 0.021 0.828 
2585 0.888321 2341.91 1.433 0 0.064 1.369 
2593 1.04971 2783.48 2.414 0 0.085 2.329 
2601 0.988765 2558.12 3.265 0 0.131 3.134 
2609 0.959378 2423.8 4.076 0 0.144 3.932 
2617 1.03953 2664.12 4.436 0 0.169 4.267 
2625 0.00321701 0.316275 0.001 0 0 0.001 
2633 0 0 0 0 0 0 
2641 0.00153583 0.26133 0.001 0 0 0.001 
2649 0.0048006 12.646 0.003 0 0.001 0.002 
2657 0.00956129 42.8315 0.006 0 0 0.006 
2665 0.0183308 72.3153 0.01 0 0.002 0.008 
2673 0.0164107 85.0128 0.007 0 0 0.007 
2681 0.0323611 127.03 0.014 0 0.001 0.013 
2689 0.0597481 251.229 0.023 0 0.001 0.022 
2697 0.0976101 474.952 0.042 0 0.004 0.038 
2705 0.180304 837.823 0.061 0 0.002 0.059 
2713 0.29407 1183.28 0.091 0 0.003 0.088 
2721 0.427011 1591.74 0.127 0 0.005 0.122 
2729 0.558656 1971.19 0.149 0 0.005 0.144 
2737 0.688999 2031.25 0.194 0 0.013 0.181 
2745 0.704273 1932.69 0.219 0 0.009 0.21 
2753 0.786887 2060.81 0.239 0 0.011 0.228 
2761 0.885424 2398.31 0.492 0 0.014 0.478 
2769 0.86123 2331.24 0.783 0 0.025 0.758 
2777 0.89266 2428.16 1.408 0 0.048 1.36 
2785 0.980021 2597.06 2.307 0 0.065 2.242 
2793 0.929541 2309.78 3.146 0 0.116 3.03 
2801 0.940039 2316.81 3.929 0 0.145 3.784 
2809 0.987202 2506.35 4.317 0 0.17 4.147 
2817 0.0035395 3.54098 0.001 0 0 0.001 
2825 0 0 0 0 0 0 
2833 0.00262834 4.95572 0.001 0 0 0.001 
2841 0.0027674 10.3523 0.002 0 0 0.002 
2849 0.0133272 18.4389 0.007 0 0 0.007 
2857 0.0211338 60.3372 0.011 0 0.002 0.009 
2865 0.0170668 52.5147 0.008 0 0 0.008 
2873 0.0455275 174.114 0.018 0 0.002 0.016 
2881 0.0356235 141 0.014 0 0.001 0.013 
2889 0.117043 581.971 0.044 0 0.002 0.042 
2897 0.195921 874.787 0.072 0 0 0.072 
2905 0.276279 1214.73 0.087 0 0.002 0.085 
2913 0.369775 1368.34 0.114 0 0.004 0.11 
2921 0.450661 1430.46 0.133 0 0.006 0.127 
2929 0.718641 2214.31 0.185 0 0.007 0.178 
2937 0.737272 2126.15 0.214 0 0.009 0.205 
2945 0.81355 2308.27 0.255 0 0.01 0.245 
2953 0.900233 2445.09 0.483 0 0.014 0.469 
2961 0.832142 2209.79 0.783 0 0.032 0.751 
2969 0.908251 2384.56 1.352 0 0.041 1.311 
2977 1.01188 2759.92 2.263 0 0.093 2.17 
2985 0.910984 2326.81 3.015 0 0.105 2.91 
2993 0.94223 2339 3.932 0 0.158 3.774 
3001 0.969745 2460.81 4.281 0 0.168 4.113 
3009 0 0 0 0 0 0 
3017 0.00155079 3.59109 0.001 0 0 0.001 
3025 0.00304052 14.7726 0.002 0 0 0.002 
3033 0.00641687 23.1714 0.004 0 0 0.004 
3041 0.00288963 20.5634 0.002 0 0 0.002 
3049 0.0167443 42.4147 0.007 0 0 0.007 
3057 0.0185345 66.7867 0.01 0 0 0.01 
3065 0.0371419 99.1244 0.017 0 0 0.017 
3073 0.0475268 274.669 0.022 0 0.002 0.02 
3081 0.101686 590.671 0.04 0 0.001 0.039 
3089 0.138761 589.922 0.047 0 0 0.047 
3097 0.220895 1027.96 0.068 0 0.003 0.065 
3105 0.370666 1324.03 0.114 0 0.004 0.11 
3113 0.544043 1824.45 0.159 0 0.01 0.149 
3121 0.625687 1873.54 0.179 0 0.011 0.168 
3129 0.830343 2444.29 0.25 0 0.01 0.24 
3137 0.93894 2445.23 0.293 0 0.01 0.283 
3145 0.809174 2126.11 0.452 0 0.014 0.438 
3153 0.827817 2199.01 0.78 0 0.028 0.752 
3161 0.852511 2258.83 1.346 0 0.052 1.294 
3169 0.938263 2468.67 2.096 0 0.085 2.011 
3177 0.888221 2245.79 2.978 0 0.096 2.882 
3185 0.90587 2280.78 3.786 0 0.15 3.636 
3193 0.970033 2454.12 4.251 0 0.162 4.089 
3201 0 0 0 0 0 0 
3209 0.00238862 1.74024 0.001 0 0 0.001 
3217 0.00826916 15.5075 0.004 0 0 0.004 
3225 0.00670217 29.1377 0.004 0 0 0.004 
3233 0.00570177 11.1309 0.003 0 0.001 0.002 
3241 0.00609484 37.6311 0.004 0 0 0.004 
3249 0.0206179 93.3285 0.01 0 0 0.01 
3257 0.0592335 243.948 0.027 0 0.002 0.025 
3265 0.043591 202.227 0.019 0 0.001 0.018 
3273 0.0883071 297.473 0.034 0 0.001 0.033 
3281 0.146855 739.241 0.054 0 0.006 0.048 
3289 0.238407 945.289 0.077 0 0 0.077 
3297 0.33979 1275.97 0.111 0 0.006 0.105 
3305 0.563993 1919.58 0.164 0 0.006 0.158 
3313 0.689375 1932.97 0.206 0 0.012 0.194 
3321 0.823142 2344.02 0.24 0 0.01 0.23 
3329 0.81705 2239.55 0.257 0 0.008 0.249 
3337 0.825749 2249.25 0.445 0 0.021 0.424 
3345 0.910203 2399.36 0.831 0 0.033 0.798 
3353 0.929945 2485.75 1.368 0 0.06 1.308 
3361 0.95017 2483.08 2.112 0 0.066 2.046 
3369 0.927123 2353.48 3.018 0 0.113 2.905 
3377 0.879348 2173.82 3.721 0 0.152 3.569 
3385 0.961615 2479.01 4.149 0 0.18 3.969 
3393 0 0 0 0 0 0 
3401 0 0 0 0 0 0 
3409 0.00497525 12.1182 0.003 0 0 0.003 
3417 0.00126091 19.3509 0.001 0 0 0.001 
3425 0.00919749 55.1127 0.005 0 0 0.005 
3433 0.012307 20.2098 0.005 0 0 0.005 
3441 0.00964551 24.598 0.006 0 0 0.006 
3449 0.0227679 62.0505 0.01 0 0 0.01 
3457 0.0660977 292.378 0.027 0 0 0.027 
3465 0.139979 638.818 0.057 0 0.005 0.052 
3473 0.212571 738.935 0.078 0 0.003 0.075 
3481 0.249608 1099.98 0.088 0 0.001 0.087 
3489 0.29653 1086.18 0.103 0 0.006 0.097 
3497 0.509507 1624.36 0.149 0 0.005 0.144 
3505 0.719766 2111.46 0.224 0 0.01 0.214 
3513 0.909729 2596.22 0.281 0 0.004 0.277 
3521 0.848893 2290.54 0.25 0 0.012 0.238 
3529 0.738794 2045.04 0.412 0 0.017 0.395 
3537 0.827957 2272.67 0.777 0 0.023 0.754 
3545 0.910516 2415.21 1.399 0 0.052 1.347 
3553 0.887403 2326.74 2.015 0 0.068 1.947 
3561 0.906405 2326.35 2.987 0 0.12 2.867 
3569 0.897573 2225.53 3.772 0 0.146 3.626 
3577 0.98068 2483.12 4.18 0 0.146 4.034 
3585 0 0 0 0 0 0 
3593 0.00254466 3.69091 0.001 0 0.001 0 
3601 0.00229007 1.92467 0.001 0 0 0.001 
3609 0.00201958 0.173971 0.001 0 0 0.001 
3617 0.00360045 17.0833 0.003 0 0 0.003 
3625 0.00951285 69.939 0.005 0 0.001 0.004 
3633 0.0166991 90.7761 0.009 0 0.001 0.008 
3641 0.0272026 121.153 0.012 0 0 0.012 
3649 0.0649165 200.643 0.028 0 0 0.028 
3657 0.0980207 467.124 0.042 0 0.002 0.04 
3665 0.160303 772.63 0.052 0 0.001 0.051 
3673 0.295458 1158.39 0.096 0 0.004 0.092 
3681 0.332775 1138.89 0.114 0 0.004 0.11 
3689 0.49291 1662.81 0.155 0 0.007 0.148 
3697 0.574172 1708.42 0.184 0 0.01 0.174 
3705 0.767897 2109.99 0.243 0 0.008 0.235 
3713 0.781608 2248.22 0.244 0 0.006 0.238 
3721 0.891975 2500.22 0.466 0 0.013 0.453 
3729 0.885491 2456.61 0.782 0 0.022 0.76 
3737 0.95035 2515.33 1.359 0 0.056 1.303 
3745 0.920886 2403.1 2.089 0 0.075 2.014 
3753 0.897352 2286.57 2.945 0 0.111 2.834 
3761 0.89583 2235.33 3.692 0 0.136 3.556 
3769 0.94621 2364.44 4.064 0 0.131 3.933 
3777 0 0 0 0 0 0 
3785 0 0 0 0 0 0 
3793 0.00143781 2.78164 0.001 0 0.001 0 
3801 0 0 0 0 0 0 
3809 0 0 0 0 0 0 
3817 0.0249912 66.7913 0.011 0 0 0.011 
3825 0.0327946 113.988 0.017 0 0.003 0.014 
3833 0.0316142 106.903 0.014 0 0 0.014 
3841 0.0571724 255.851 0.023 0 0.002 0.021 
3849 0.139884 628.813 0.051 0 0.001 0.05 
3857 0.185029 768.949 0.069 0 0.002 0.067 
3865 0.264842 968.151 0.094 0 0.002 0.092 
3873 0.40408 1474.58 0.123 0 0.008 0.115 
3881 0.642477 2169.51 0.179 0 0.006 0.173 
3889 0.72632 2112.5 0.202 0 0.003 0.199 
3897 0.793458 2199.9 0.222 0 0.009 0.213 
3905 0.827288 2226.44 0.251 0 0.009 0.242 
3913 0.921659 2495.64 0.473 0 0.017 0.456 
3921 0.835386 2244.87 0.729 0 0.03 0.699 
3929 0.902874 2378.66 1.327 0 0.039 1.288 
3937 0.913673 2386.94 2.004 0 0.074 1.93 
3945 0.907648 2308.04 2.983 0 0.105 2.878 
3953 0.87042 2202.77 3.622 0 0.132 3.49 
3961 0.960871 2453.26 4.027 0 0.168 3.859 
3969 0.0014024 3.20845 0.001 0 0 0.001 
3977 0.00115908 5.44257 0.001 0 0 0.001 
3985 0 0 0 0 0 0 
3993 0.00386993 29.8457 0.003 0 0.001 0.002 
4001 0.000779804 4.18573 0.001 0 0 0.001 
4009 0.0164073 66.1411 0.008 0 0 0.008 
4017 0.0237199 153.109 0.015 0 0.001 0.014 
4025 0.0470205 205.47 0.02 0 0 0.02 
4033 0.074637 268.256 0.034 0 0.003 0.031 
4041 0.137977 675.594 0.051 0 0.005 0.046 
4049 0.216626 970.065 0.079 0 0.006 0.073 
4057 0.260237 974.58 0.091 0 0.003 0.088 
4065 0.335591 1153.01 0.102 0 0.005 0.097 
4073 0.596658 1828.55 0.186 0 0.01 0.176 
4081 0.679105 2081.83 0.199 0 0.007 0.192 
4089 0.793918 2248.13 0.248 0 0.01 0.238 
4097 0.788051 2254.27 0.228 0 0.011 0.217 
4105 0.838467 2297.42 0.451 0 0.017 0.434 
4113 0.81221 2163.39 0.765 0 0.027 0.738 
4121 0.869026 2318.48 1.285 0 0.045 1.24 
4129 0.894697 2343.2 1.957 0 0.072 1.885 
4137 0.937773 2382.52 2.976 0 0.109 2.867 
4145 0.912782 2322.67 3.634 0 0.137 3.497 
4153 0.927592 2333.26 3.868 0 0.143 3.725 
4161 0 0 0 0 0 0 
4169 0 0 0 0 0 0 
4177 0.00206917 11.3912 0.001 0 0 0.001 
4185 0.00173622 0.819504 0.001 0 0 0.001 
4193 0.000431703 0.378616 0.001 0 0 0.001 
4201 0.00769213 47.756 0.005 0 0 0.005 
4209 0.0404483 197.255 0.019 0 0 0.019 
4217 0.0396566 207.229 0.02 0 0.002 0.018 
4225 0.0962242 390.97 0.038 0 0 0.038 
4233 0.13451 679.427 0.049 0 0.004 0.045 
4241 0.193282 765.62 0.068 0 0.004 0.064 
4249 0.32543 1233.13 0.112 0 0.003 0.109 
4257 0.473088 1750.47 0.143 0 0.009 0.134 
4265 0.566958 1808.77 0.16 0 0.001 0.159 
4273 0.811906 2364.44 0.218 0 0.01 0.208 
4281 0.89078 2591.43 0.249 0 0.017 0.232 
4289 0.801206 2289.04 0.245 0 0.008 0.237 
4297 0.88233 2519.63 0.443 0 0.02 0.423 
4305 0.941691 2587.74 0.827 0 0.03 0.797 
4313 0.864847 2242.51 1.285 0 0.043 1.242 
4321 0.850695 2170.87 1.897 0 0.081 1.816 
4329 0.923476 2355.41 2.87 0 0.11 2.76 
4337 0.894647 2266.12 3.536 0 0.134 3.402 
4345 0.912552 2339.52 3.81 0 0.162 3.648 
4353 0 0 0 0 0 0 
4361 0.00364637 8.16491 0.002 0 0.001 0.001 
4369 0.00682767 18.4066 0.004 0 0 0.004 
4377 0.00182828 4.78658 0.001 0 0 0.001 
4385 0.00507969 11.7282 0.003 0 0 0.003 
4393 0.00720347 51.7007 0.005 0 0 0.005 
4401 0.00442255 7.21882 0.003 0 0 0.003 
4409 0.0415028 194.981 0.018 0 0 0.018 
4417 0.0680651 307.184 0.028 0 0 0.028 
4425 0.146756 673.784 0.056 0 0.004 0.052 
4433 0.242913 931.847 0.091 0 0.004 0.087 
4441 0.301233 1237.35 0.093 0 0.005 0.088 
4449 0.463372 1693.34 0.139 0 0.009 0.13 
4457 0.659859 2226 0.201 0 0.006 0.195 
4465 0.723391 2223.4 0.197 0 0.013 0.184 
4473 0.925938 2708.04 0.256 0 0.007 0.249 
4481 0.921419 2730.22 0.26 0 0.009 0.251 
4489 0.938207 2565.88 0.455 0 0.006 0.449 
4497 0.867842 2313.98 0.813 0 0.041 0.772 
4505 0.865387 2251.14 1.267 0 0.045 1.222 
4513 0.941915 2410.34 2.049 0 0.068 1.981 
4521 0.88913 2274.01 2.787 0 0.084 2.703 
4529 0.929493 2341.96 3.599 0 0.115 3.484 
4537 0.920413 2319.08 3.809 0 0.163 3.646 
4545 0 0 0 0 0 0 
4553 0.000973438 3.63845 0.001 0 0 0.001 
4561 0.00417604 17.4055 0.002 0 0 0.002 
4569 0.00125763 5.65865 0.001 0 0 0.001 
4577 0.00467487 9.4063 0.003 0 0 0.003 
4585 0.0175187 55.6954 0.009 0 0 0.009 
4593 0.0279251 121.669 0.017 0 0 0.017 
4601 0.0500341 211.017 0.021 0 0 0.021 
4609 0.0657554 318.262 0.032 0 0.003 0.029 
4617 0.149842 777.973 0.058 0 0.003 0.055 
4625 0.217321 941.177 0.078 0 0.001 0.077 
4633 0.341336 1339.48 0.111 0 0.013 0.098 
4641 0.395996 1312.75 0.126 0 0.005 0.121 
4649 0.654224 2182.98 0.175 0 0.007 0.168 
4657 0.643068 1885.87 0.207 0 0.006 0.201 
4665 0.77701 2308.93 0.238 0 0.015 0.223 
4673 0.839522 2308.28 0.252 0 0.014 0.238 
4681 0.858141 2371.13 0.452 0 0.013 0.439 
4689 0.77708 2033.61 0.728 0 0.033 0.695 
4697 0.85714 2230.83 1.271 0 0.046 1.225 
4705 0.878265 2297.93 1.937 0 0.078 1.859 
4713 0.872828 2199.77 2.77 0 0.097 2.673 
4721 0.925409 2356.6 3.522 0 0.128 3.394 
4729 0.931325 2363.12 3.787 0 0.137 3.65 
4737 0.00238724 -0.14371 0.001 0 0 0.001 
4745 0.00616918 23.8067 0.003 0 0.001 0.002 
4753 0.00168266 4.87785 0.001 0 0 0.001 
4761 0.00631094 23.8533 0.003 0 0 0.003 
4769 0.0056134 14.9793 0.003 0 0 0.003 
4777 0.0187341 91.5008 0.013 0 0.003 0.01 
4785 0.0204055 65.5936 0.009 0 0 0.009 
4793 0.0300745 131.609 0.015 0 0 0.015 
4801 0.0717549 348.933 0.032 0 0.001 0.031 
4809 0.126631 603.911 0.055 0 0 0.055 
4817 0.159706 663.828 0.057 0 0.001 0.056 
4825 0.238945 846.25 0.084 0 0.004 0.08 
4833 0.449379 1602.41 0.141 0 0.006 0.135 
4841 0.574858 1727.29 0.173 0 0.003 0.17 
4849 0.776638 2292.12 0.21 0 0.005 0.205 
4857 0.723594 1957.94 0.227 0 0.005 0.222 
4865 0.829375 2172.41 0.247 0 0.012 0.235 
4873 0.827213 2225.93 0.394 0 0.022 0.372 
4881 0.857632 2328.43 0.723 0 0.037 0.686 
4889 0.945884 2495.05 1.314 0 0.055 1.259 
4897 0.890596 2316.84 1.921 0 0.067 1.854 
4905 0.892094 2248.21 2.737 0 0.083 2.654 
4913 0.959302 2452.25 3.662 0 0.152 3.51 
4921 0.93317 2348.34 3.746 0 0.159 3.587 
4929 0 0 0 0 0 0 
4937 0.00203353 0.340466 0.002 0 0 0.002 
4945 0.00413837 15.9009 0.003 0 0 0.003 
4953 0 0 0 0 0 0 
4961 0.0226004 88.6837 0.012 0 0.002 0.01 
4969 0.0138576 34.83 0.005 0 0 0.005 
4977 0.0157215 55.2077 0.007 0 0 0.007 
4985 0.0555518 247.68 0.026 0 0.002 0.024 
4993 0.101923 483.07 0.039 0 0 0.039 
5001 0.147217 591.463 0.055 0 0.002 0.053 
5009 0.245174 977.716 0.089 0 0.005 0.084 
5017 0.253635 998.138 0.087 0 0.005 0.082 
5025 0.54176 1963.46 0.154 0 0.006 0.148 
5033 0.630801 1978.8 0.189 0 0.006 0.183 
5041 0.734666 2066.22 0.204 0 0.007 0.197 
5049 0.914893 2534.45 0.265 0 0.011 0.254 
5057 0.815649 2313.56 0.233 0 0.004 0.229 
5065 0.76859 2043.43 0.397 0 0.014 0.383 
5073 0.799272 2147.58 0.694 0 0.027 0.667 
5081 0.866314 2183.67 1.235 0 0.049 1.186 
5089 0.873074 2259.33 1.85 0 0.059 1.791 
5097 0.904587 2255.98 2.748 0 0.08 2.668 
5105 0.898774 2270.35 3.363 0 0.13 3.233 
5113 0.925055 2302.88 3.757 0 0.151 3.606 
5121 0 0 0 0 0 0 
5129 0 0 0 0 0 0 
5137 0.00259646 5.28086 0.002 0 0 0.002 
5145 0.00969525 12.7951 0.005 0 0 0.005 
5153 0.00583636 15.3344 0.005 0 0 0.005 
5161 0.0110546 47.06 0.008 0 0.001 0.007 
5169 0.0296344 138.957 0.014 0 0 0.014 
5177 0.0286913 116.698 0.012 0 0 0.012 
5185 0.0517675 207.175 0.023 0 0.002 0.021 
5193 0.136993 632.724 0.045 0 0.002 0.043 
5201 0.233045 1087.98 0.081 0 0.003 0.078 
5209 0.373073 1535.46 0.109 0 0.003 0.106 
5217 0.521111 1967.92 0.133 0 0.003 0.13 
5225 0.510228 1634.86 0.147 0 0.006 0.141 
5233 0.754663 2222.94 0.211 0 0.007 0.204 
5241 0.861745 2421.59 0.229 0 0.007 0.222 
5249 0.85841 2348.45 0.256 0 0.009 0.247 
5257 0.818726 2133.5 0.429 0 0.02 0.409 
5265 0.751123 2049.11 0.65 0 0.014 0.636 
5273 0.911625 2422.78 1.235 0 0.046 1.189 
5281 0.885771 2295.53 1.874 0 0.055 1.819 
5289 0.896609 2326.03 2.615 0 0.103 2.512 
5297 0.912996 2264.57 3.398 0 0.137 3.261 
5305 0.953541 2437.81 3.68 0 0.139 3.541 
5313 0 0 0 0 0 0 
5321 0.00284675 11.0127 0.001 0 0 0.001 
5329 0.00279903 2.7292 0.002 0 0 0.002 
5337 0.00367969 21.8077 0.003 0 0 0.003 
5345 0.0117444 47.4384 0.007 0 0 0.007 
5353 0.0189321 52.765 0.007 0 0 0.007 
5361 0.0261961 59.4724 0.011 0 0 0.011 
5369 0.0468409 162.086 0.022 0 0.002 0.02 
5377 0.102812 585.34 0.043 0 0.002 0.041 
5385 0.151357 679.796 0.058 0 0.001 0.057 
5393 0.246092 967.07 0.084 0 0.004 0.08 
5401 0.321592 1258.95 0.098 0 0.004 0.094 
5409 0.548357 1988.39 0.146 0 0.006 0.14 
5417 0.642765 2362.81 0.172 0 0.006 0.166 
5425 0.713219 2100.74 0.201 0 0.006 0.195 
5433 0.88033 2495.9 0.245 0 0.005 0.24 
5441 0.838082 2490.14 0.229 0 0.011 0.218 
5449 0.841056 2294.74 0.415 0 0.018 0.397 
5457 0.884098 2326.54 0.735 0 0.027 0.708 
5465 0.887266 2409.7 1.196 0 0.037 1.159 
5473 0.87229 2207.94 1.867 0 0.077 1.79 
5481 0.885428 2264.91 2.598 0 0.107 2.491 
5489 0.902361 2281.43 3.298 0 0.116 3.182 
5497 0.932938 2359.35 3.58 0 0.144 3.436 
5505 0.00483487 0.111594 0.001 0 0 0.001 
5513 0 0 0 0 0 0 
5521 0.00587235 34.951 0.003 0 0.001 0.002 
5529 0.00816154 23.2623 0.005 0 0.001 0.004 
5537 0.00925933 40.4901 0.006 0 0.001 0.005 
5545 0.0207359 106.6 0.011 0 0.001 0.01 
5553 0.0246016 110.966 0.013 0 0.001 0.012 
5561 0.0602675 272.799 0.025 0 0.001 0.024 
5569 0.0671883 366.025 0.028 0 0.004 0.024 
5577 0.146702 658.472 0.051 0 0.002 0.049 
5585 0.202513 867.477 0.072 0 0.001 0.071 
5593 0.364372 1399.91 0.105 0 0.005 0.1 
5601 0.371812 1434.83 0.114 0 0.005 0.109 
5609 0.524668 1789.62 0.144 0 0.004 0.14 
5617 0.680329 1968.02 0.191 0 0.004 0.187 
5625 0.744789 1928.94 0.227 0 0.012 0.215 
5633 0.850378 2290.88 0.23 0 0.009 0.221 
5641 0.840819 2317.49 0.417 0 0.021 0.396 
5649 0.825748 2192.9 0.693 0 0.031 0.662 
5657 0.879314 2343.54 1.184 0 0.046 1.138 
5665 0.983046 2580.64 1.944 0 0.08 1.864 
5673 0.880615 2211.27 2.537 0 0.1 2.437 
5681 0.917073 2281.07 3.213 0 0.105 3.108 
5689 0.934576 2295.72 3.556 0 0.141 3.415 
5697 0.00378912 16.9766 0.001 0 0 0.001 
5705 0 0 0 0 0 0 
5713 0 0 0 0 0 0 
5721 0.0027542 8.25351 0.002 0 0 0.002 
5729 0.0111045 64.4108 0.007 0 0 0.007 
5737 0.0186282 99.5902 0.011 0 0 0.011 
5745 0.0298261 114.077 0.013 0 0.001 0.012 
5753 0.0544527 243.734 0.025 0 0.001 0.024 
5761 0.0637281 241.479 0.028 0 0 0.028 
5769 0.131208 516.63 0.041 0 0.001 0.04 
5777 0.245854 1015.2 0.076 0 0.003 0.073 
5785 0.24124 878.522 0.082 0 0.003 0.079 
5793 0.413587 1400.44 0.105 0 0.004 0.101 
5801 0.608473 2025.31 0.169 0 0.003 0.166 
5809 0.78286 2412.58 0.214 0 0.007 0.207 
5817 0.95267 2665.39 0.251 0 0.006 0.245 
5825 0.826407 2440.5 0.229 0 0.008 0.221 
5833 0.862132 2374.56 0.415 0 0.018 0.397 
5841 0.883325 2370.77 0.717 0 0.025 0.692 
5849 0.968325 2565.24 1.265 0 0.038 1.227 
5857 0.980358 2592.88 1.937 0 0.077 1.86 
5865 0.912569 2328.02 2.554 0 0.126 2.428 
5873 0.91283 2320.82 3.129 0 0.118 3.011 
5881 0.960103 2429.69 3.457 0 0.13 3.327 
5889 0 0 0 0 0 0 
5897 0.0011601 5.27465 0.001 0 0 0.001 
5905 0.0042844 8.75069 0.003 0 0.001 0.002 
5913 0.00700717 46.4891 0.004 0 0 0.004 
5921 0.0132291 65.0468 0.005 0 0 0.005 
5929 0.0185494 58.0265 0.008 0 0.001 0.007 