ITEM: TIMESTEP
14000
ITEM: NUMBER OF CELLS
11858
ITEM: BOX BOUNDS oo ro oo
-2.505 0.895
0 2.5
-2.5 2.5
ITEM: CELLS id f_2[1] f_2[2] f_2[3] f_2[4] f_2[5] f_2[6] f_2[7] f_2[8] 
1 1.18166e-18 4.22435e-21 2.60408e-21 7.18508e-26 4.21845e-08 0.0334175 0.0303927 0.969607 
2 1.15071e-18 5.6502e-21 4.41741e-21 7.18352e-26 4.38319e-08 0.0507149 0.0307784 0.969222 
3 1.10505e-18 7.59642e-21 7.14073e-21 7.1814e-26 4.60202e-08 0.0759252 0.0313045 0.968695 
4 1.0377e-18 1.06402e-20 1.08285e-20 7.17934e-26 4.95222e-08 0.113063 0.0318147 0.968185 
11 1.18106e-18 4.30613e-21 2.60817e-21 7.18568e-26 4.2036e-08 0.0334932 0.030244 0.969756 
12 1.14966e-18 5.72278e-21 4.45502e-21 7.18402e-26 4.33239e-08 0.0506382 0.0306563 0.969344 
13 1.10498e-18 7.61062e-21 7.10443e-21 7.18245e-26 4.52731e-08 0.0749841 0.031044 0.968956 
14 1.03908e-18 1.04688e-20 1.07761e-20 7.18067e-26 4.85227e-08 0.110267 0.0314839 0.968516 
21 1.18293e-18 4.24378e-21 2.3981e-21 7.18651e-26 4.19025e-08 0.0322425 0.0300383 0.969962 
22 1.15289e-18 5.66398e-21 4.12599e-21 7.18566e-26 4.31398e-08 0.0487013 0.0302495 0.969751 
23 1.11055e-18 7.4189e-21 6.7168e-21 7.18365e-26 4.49996e-08 0.07178 0.0307478 0.969252 
24 1.04672e-18 1.04289e-20 1.03375e-20 7.18201e-26 4.81178e-08 0.105635 0.0311528 0.968847 
31 1.18687e-18 4.08648e-21 2.26057e-21 7.18643e-26 4.17893e-08 0.0301661 0.0300593 0.969941 
32 1.15975e-18 5.3609e-21 3.98795e-21 7.18505e-26 4.29038e-08 0.0449515 0.0304014 0.969599 
33 1.12083e-18 7.15326e-21 6.22888e-21 7.18415e-26 4.45916e-08 0.0661323 0.0306224 0.969378 
34 1.06239e-18 9.57255e-21 9.6063e-21 7.18227e-26 4.73688e-08 0.0971743 0.031089 0.968911 
41 1.191e-18 3.9997e-21 2.12784e-21 7.18682e-26 4.16446e-08 0.0277528 0.0299611 0.970039 
42 1.16586e-18 5.06483e-21 3.70843e-21 7.18598e-26 4.26556e-08 0.041376 0.0301692 0.969831 
43 1.13062e-18 6.77602e-21 5.74991e-21 7.18362e-26 4.41444e-08 0.0602207 0.0307552 0.969245 
44 1.08096e-18 8.9855e-21 8.74905e-21 7.18315e-26 4.64643e-08 0.0865608 0.030871 0.969129 
51 1.19538e-18 3.69418e-21 1.99351e-21 7.18716e-26 4.14214e-08 0.0249794 0.0298773 0.970123 
52 1.17289e-18 4.80718e-21 3.39162e-21 7.18634e-26 4.23422e-08 0.0371406 0.0300815 0.969918 
53 1.14397e-18 6.20177e-21 5.12657e-21 7.18596e-26 4.35828e-08 0.0526713 0.0301743 0.969826 
54 1.10413e-18 7.90676e-21 7.48175e-21 7.18442e-26 4.54277e-08 0.0740351 0.0305569 0.969443 
61 1.20147e-18 3.5374e-21 1.6269e-21 7.18756e-26 4.12556e-08 0.0217307 0.0297803 0.97022 
62 1.18354e-18 4.40609e-21 2.74471e-21 7.18761e-26 4.19572e-08 0.0314683 0.0297656 0.970234 
63 1.15965e-18 5.47781e-21 4.15015e-21 7.18575e-26 4.28957e-08 0.0442307 0.0302271 0.969773 
64 1.12814e-18 6.86984e-21 6.26381e-21 7.18407e-26 4.42687e-08 0.0608963 0.0306425 0.969357 
71 1.17014e-18 4.77426e-21 3.16636e-21 7.185e-26 4.26981e-08 0.0396561 0.0304116 0.969588 
72 1.12974e-18 6.79307e-21 5.5702e-21 7.18278e-26 4.49627e-08 0.0620007 0.0309629 0.969037 
73 1.07321e-18 9.40959e-21 9.09588e-21 7.18058e-26 4.81121e-08 0.0937949 0.0315073 0.968493 
74 9.90718e-19 1.31583e-20 1.40624e-20 7.17937e-26 5.30552e-08 0.140049 0.0318062 0.968194 
81 1.17171e-18 4.73243e-21 3.0294e-21 7.18537e-26 4.23335e-08 0.0388118 0.0303199 0.96968 
82 1.12989e-18 6.75559e-21 5.6056e-21 7.18451e-26 4.40613e-08 0.0609957 0.0305341 0.969466 
83 1.07246e-18 9.48168e-21 9.172e-21 7.18164e-26 4.67637e-08 0.0914058 0.0312446 0.968755 
84 9.88322e-19 1.29555e-20 1.41838e-20 7.18004e-26 5.12089e-08 0.136224 0.0316404 0.96836 
91 1.17091e-18 4.73041e-21 3.04379e-21 7.18507e-26 4.24342e-08 0.038974 0.0303954 0.969605 
92 1.13308e-18 6.59726e-21 5.39429e-21 7.1828e-26 4.39343e-08 0.0587036 0.0309574 0.969043 
93 1.07686e-18 9.2109e-21 8.80428e-21 7.18102e-26 4.64862e-08 0.0887789 0.0313988 0.968601 
94 9.97326e-19 1.27196e-20 1.38267e-20 7.17932e-26 5.05895e-08 0.130723 0.0318195 0.968181 
101 1.17566e-18 4.53784e-21 2.7858e-21 7.18535e-26 4.22213e-08 0.0362931 0.0303253 0.969675 
102 1.13999e-18 6.3505e-21 5.15302e-21 7.1835e-26 4.36915e-08 0.0552782 0.0307852 0.969215 
103 1.08829e-18 8.69642e-21 8.47595e-21 7.18242e-26 4.59717e-08 0.0824671 0.0310512 0.968949 
104 1.01627e-18 1.20383e-20 1.25304e-20 7.18144e-26 4.96209e-08 0.120261 0.031295 0.968705 
111 1.18168e-18 4.31e-21 2.64586e-21 7.18549e-26 4.1996e-08 0.0327216 0.0302909 0.969709 
112 1.1489e-18 6.03169e-21 4.7692e-21 7.18537e-26 4.33079e-08 0.0501811 0.0303218 0.969678 
113 1.10291e-18 8.33564e-21 7.62739e-21 7.18432e-26 4.52877e-08 0.0744959 0.0305801 0.96942 
114 1.03915e-18 1.1381e-20 1.15494e-20 7.18284e-26 4.84185e-08 0.107769 0.0309468 0.969053 
121 1.18755e-18 4.15535e-21 2.48114e-21 7.18639e-26 4.17957e-08 0.0295005 0.0300686 0.969931 
122 1.15952e-18 5.59978e-21 4.29901e-21 7.18521e-26 4.29437e-08 0.0443569 0.0303613 0.969639 
123 1.12126e-18 7.35161e-21 6.69951e-21 7.1842e-26 4.4547e-08 0.0641972 0.0306114 0.969389 
124 1.06634e-18 1.00746e-20 1.00123e-20 7.1831e-26 4.70806e-08 0.0927387 0.0308839 0.969116 
131 1.19405e-18 3.87425e-21 2.03063e-21 7.18675e-26 4.15093e-08 0.0258136 0.0299787 0.970021 
132 1.17104e-18 5.02927e-21 3.68857e-21 7.18572e-26 4.23847e-08 0.0380449 0.0302356 0.969764 
133 1.14131e-18 6.5924e-21 5.4611e-21 7.18534e-26 4.3625e-08 0.0537763 0.0303281 0.969672 
134 1.09836e-18 8.51012e-21 8.06174e-21 7.1847e-26 4.55324e-08 0.0760733 0.0304871 0.969513 
141 1.15908e-18 5.22335e-21 3.83285e-21 7.18465e-26 4.3153e-08 0.0460951 0.0305001 0.9695 
142 1.11206e-18 7.62546e-21 6.73032e-21 7.1828e-26 4.5756e-08 0.0718159 0.0309583 0.969042 
143 1.04352e-18 1.09225e-20 1.08483e-20 7.18042e-26 4.96093e-08 0.109473 0.0315476 0.968452 
144 9.46906e-19 1.52576e-20 1.68915e-20 7.1786e-26 5.5929e-08 0.164086 0.0319977 0.968002 
151 1.16076e-18 5.17985e-21 3.81212e-21 7.18407e-26 4.28114e-08 0.0448871 0.0306438 0.969356 
152 1.11128e-18 7.88377e-21 6.85724e-21 7.18176e-26 4.4951e-08 0.0708563 0.0312149 0.968785 
153 1.0411e-18 1.10758e-20 1.11067e-20 7.17968e-26 4.82729e-08 0.107844 0.0317311 0.968269 
154 9.40291e-19 1.54047e-20 1.71861e-20 7.17744e-26 5.40078e-08 0.160806 0.0322861 0.967714 
161 1.16211e-18 5.02085e-21 3.66403e-21 7.18387e-26 4.27628e-08 0.04392 0.0306913 0.969309 
162 1.11496e-18 7.51566e-21 6.67401e-21 7.18137e-26 4.4839e-08 0.0688904 0.0313119 0.968688 
163 1.04918e-18 1.07617e-20 1.08003e-20 7.17955e-26 4.79989e-08 0.103475 0.0317639 0.968236 
164 9.54138e-19 1.4894e-20 1.65679e-20 7.17809e-26 5.33428e-08 0.15364 0.0321249 0.967875 
171 1.16523e-18 5.01455e-21 3.54518e-21 7.18435e-26 4.2663e-08 0.0419849 0.0305744 0.969426 
172 1.1219e-18 7.1121e-21 6.33361e-21 7.18267e-26 4.45198e-08 0.0647958 0.0309889 0.969011 
173 1.06049e-18 9.96269e-21 1.00902e-20 7.18295e-26 4.7406e-08 0.0974192 0.0309215 0.969079 
174 9.74306e-19 1.39865e-20 1.54247e-20 7.18032e-26 5.20917e-08 0.142449 0.0315717 0.968428 
181 1.17303e-18 4.66213e-21 3.06242e-21 7.18478e-26 4.23734e-08 0.0377806 0.0304682 0.969532 
182 1.13311e-18 6.74199e-21 5.85012e-21 7.18364e-26 4.4098e-08 0.0587765 0.0307497 0.96925 
183 1.07755e-18 9.36457e-21 9.26269e-21 7.18309e-26 4.66359e-08 0.0878578 0.0308868 0.969113 
184 1.00335e-18 1.30857e-20 1.39209e-20 7.18179e-26 5.04957e-08 0.126441 0.0312068 0.968793 
191 1.17973e-18 4.41976e-21 2.83111e-21 7.18543e-26 4.20684e-08 0.0337986 0.0303067 0.969693 
192 1.14534e-18 6.10828e-21 5.03595e-21 7.18445e-26 4.35186e-08 0.051919 0.0305481 0.969452 
193 1.09879e-18 8.44508e-21 8.12014e-21 7.18396e-26 4.55521e-08 0.0761989 0.0306706 0.969329 
194 1.03443e-18 1.15646e-20 1.20125e-20 7.18117e-26 4.87605e-08 0.109359 0.0313607 0.968639 
201 1.18758e-18 4.07709e-21 2.44035e-21 7.1864e-26 4.17566e-08 0.0294258 0.0300658 0.969934 
202 1.16083e-18 5.4741e-21 4.27273e-21 7.18539e-26 4.28429e-08 0.0435966 0.0303157 0.969684 
203 1.12299e-18 7.50841e-21 6.8027e-21 7.18423e-26 4.44303e-08 0.0632904 0.0306032 0.969397 
204 1.07084e-18 9.96235e-21 9.95952e-21 7.18316e-26 4.68545e-08 0.0902949 0.0308685 0.969132 
262 1.1332e-18 6.79952e-21 5.87388e-21 7.18439e-26 4.40405e-08 0.0585523 0.0305633 0.969437 
263 1.08025e-18 9.45493e-21 9.45167e-21 7.18273e-26 4.65059e-08 0.0861971 0.0309757 0.969024 
264 1.00568e-18 1.29201e-20 1.41487e-20 7.18096e-26 5.03433e-08 0.124457 0.0314124 0.968588 
271 1.18105e-18 4.40912e-21 2.67573e-21 7.18573e-26 4.2036e-08 0.0331367 0.0302314 0.969769 
272 1.15088e-18 5.97458e-21 4.76027e-21 7.18491e-26 4.32946e-08 0.0491201 0.0304341 0.969566 
273 1.10646e-18 8.08396e-21 7.56936e-21 7.18364e-26 4.52396e-08 0.0723111 0.0307504 0.96925 
274 1.0479e-18 1.08483e-20 1.16746e-20 7.1837e-26 4.80743e-08 0.102551 0.0307335 0.969266 
211 1.14897e-18 5.67598e-21 4.42589e-21 7.18363e-26 4.35306e-08 0.0517171 0.0307509 0.969249 
212 1.09417e-18 8.57569e-21 7.99814e-21 7.18086e-26 4.65406e-08 0.0813901 0.0314379 0.968562 
213 1.01898e-18 1.22291e-20 1.27275e-20 7.17972e-26 5.10789e-08 0.123225 0.0317217 0.968278 
214 9.07834e-19 1.7197e-20 1.93342e-20 7.1779e-26 5.88171e-08 0.185793 0.0321714 0.967829 
221 1.14985e-18 5.6311e-21 4.31417e-21 7.18428e-26 4.33152e-08 0.0511135 0.0305905 0.96941 
222 1.09326e-18 8.61814e-21 7.89077e-21 7.18237e-26 4.5856e-08 0.0808303 0.0310627 0.968937 
223 1.01417e-18 1.22813e-20 1.28736e-20 7.17992e-26 4.97871e-08 0.122419 0.0316716 0.968328 
224 9.02535e-19 1.72408e-20 1.94618e-20 7.17706e-26 5.6719e-08 0.18143 0.0323802 0.96762 
231 1.15336e-18 5.41242e-21 4.22583e-21 7.18433e-26 4.31439e-08 0.0489219 0.0305775 0.969423 
232 1.09962e-18 8.23303e-21 7.71224e-21 7.18288e-26 4.55436e-08 0.0771082 0.030937 0.969063 
233 1.0234e-18 1.19293e-20 1.23609e-20 7.17995e-26 4.93754e-08 0.117174 0.0316639 0.968336 
234 9.15329e-19 1.67308e-20 1.89303e-20 7.17709e-26 5.59279e-08 0.174463 0.0323722 0.967628 
241 1.15641e-18 5.292e-21 4.06709e-21 7.18417e-26 4.2975e-08 0.0471282 0.0306182 0.969382 
242 1.10742e-18 7.85142e-21 7.28462e-21 7.18282e-26 4.51542e-08 0.072739 0.0309529 0.969047 
243 1.03767e-18 1.12564e-20 1.14505e-20 7.18018e-26 4.85821e-08 0.109067 0.0316061 0.968394 
244 9.38041e-19 1.57548e-20 1.77502e-20 7.17922e-26 5.44151e-08 0.16147 0.0318454 0.968155 
251 1.16247e-18 5.13969e-21 3.70985e-21 7.18457e-26 4.27731e-08 0.0435727 0.0305202 0.96948 
252 1.11938e-18 7.41562e-21 6.53375e-21 7.18288e-26 4.46764e-08 0.0661696 0.030937 0.969063 
253 1.05746e-18 1.06112e-20 1.0573e-20 7.18123e-26 4.76485e-08 0.0985077 0.0313462 0.968654 
254 9.69843e-19 1.46084e-20 1.58902e-20 7.17928e-26 5.24922e-08 0.144136 0.03183 0.96817 
261 1.17147e-18 4.73405e-21 3.31546e-21 7.18508e-26 4.24005e-08 0.0384656 0.0303934 0.969607 
281 1.14125e-18 5.87278e-21 4.65231e-21 7.18373e-26 4.39549e-08 0.0559798 0.030727 0.969273 
282 1.07956e-18 9.0795e-21 8.83046e-21 7.18161e-26 4.73214e-08 0.0892291 0.0312529 0.968747 
176 7.01874e-19 2.56229e-20 3.13779e-20 7.17937e-26 7.55389e-08 0.285018 0.0318068 0.968193 
186 7.5712e-19 2.33882e-20 2.82639e-20 7.18216e-26 6.93346e-08 0.252595 0.0311158 0.968884 
196 8.26865e-19 2.04872e-20 2.49827e-20 7.18187e-26 6.28611e-08 0.213805 0.0311874 0.968813 
206 9.05773e-19 1.70611e-20 2.02652e-20 7.18422e-26 5.66654e-08 0.172592 0.0306057 0.969394 
255 8.4986e-19 1.96743e-20 2.33265e-20 7.1778e-26 6.09627e-08 0.206133 0.0321962 0.967804 
5 9.41794e-19 1.46127e-20 1.59589e-20 7.17891e-26 5.53202e-08 0.165375 0.0319203 0.96808 
15 9.40517e-19 1.45692e-20 1.59875e-20 7.18057e-26 5.44078e-08 0.163007 0.0315105 0.968489 
25 9.56588e-19 1.39349e-20 1.52719e-20 7.18015e-26 5.33951e-08 0.154043 0.0316133 0.968387 
35 9.82333e-19 1.30721e-20 1.41144e-20 7.18032e-26 5.18063e-08 0.139151 0.0315715 0.968429 
45 1.01126e-18 1.18903e-20 1.26847e-20 7.18176e-26 5.01548e-08 0.123054 0.0312158 0.968784 
55 1.04622e-18 1.05401e-20 1.08886e-20 7.18379e-26 4.83555e-08 0.104231 0.0307124 0.969288 
65 1.08415e-18 8.82909e-21 8.77908e-21 7.18351e-26 4.64408e-08 0.0840909 0.0307823 0.969218 
75 8.73922e-19 1.82614e-20 2.09065e-20 7.17769e-26 6.15515e-08 0.205716 0.032225 0.967775 
85 8.68424e-19 1.80048e-20 2.10175e-20 7.17845e-26 5.91625e-08 0.199287 0.0320363 0.967964 
95 8.84313e-19 1.78199e-20 2.00734e-20 7.17887e-26 5.78418e-08 0.189647 0.0319313 0.968069 
105 9.13532e-19 1.65389e-20 1.86952e-20 7.18073e-26 5.58929e-08 0.173617 0.0314704 0.96853 
115 9.50133e-19 1.50679e-20 1.66789e-20 7.18184e-26 5.35428e-08 0.153269 0.031195 0.968805 
125 9.93024e-19 1.33831e-20 1.44919e-20 7.18267e-26 5.10083e-08 0.130031 0.0309894 0.969011 
135 1.03947e-18 1.11313e-20 1.18624e-20 7.18368e-26 4.84542e-08 0.105871 0.0307399 0.96926 
145 8.14057e-19 2.07557e-20 2.4886e-20 7.17731e-26 6.71229e-08 0.240541 0.0323194 0.967681 
155 8.03957e-19 2.09442e-20 2.5177e-20 7.17736e-26 6.44196e-08 0.233745 0.0323061 0.967694 
165 8.24248e-19 2.05512e-20 2.4291e-20 7.17825e-26 6.28198e-08 0.222441 0.0320856 0.967914 
175 8.56593e-19 1.92873e-20 2.24836e-20 7.17941e-26 6.0159e-08 0.203903 0.0317982 0.968202 
185 8.97066e-19 1.76549e-20 2.03022e-20 7.18163e-26 5.7257e-08 0.181472 0.0312479 0.968752 
195 9.44475e-19 1.57437e-20 1.78216e-20 7.18203e-26 5.4048e-08 0.155191 0.031147 0.968853 
205 1.00071e-18 1.2934e-20 1.45885e-20 7.18257e-26 5.04989e-08 0.125645 0.031015 0.968985 
6 8.10906e-19 1.94972e-20 2.31487e-20 7.17897e-26 6.58422e-08 0.236812 0.0319072 0.968093 
16 8.11516e-19 1.94233e-20 2.28479e-20 7.17982e-26 6.45391e-08 0.231621 0.0316958 0.968304 
26 8.37537e-19 1.83947e-20 2.15416e-20 7.17965e-26 6.22656e-08 0.216684 0.0317383 0.968262 
36 8.75215e-19 1.72183e-20 1.99282e-20 7.18072e-26 5.92762e-08 0.194963 0.0314728 0.968527 
46 9.2095e-19 1.56968e-20 1.78385e-20 7.1819e-26 5.60379e-08 0.169621 0.0311812 0.968819 
56 9.73367e-19 1.37043e-20 1.51754e-20 7.18405e-26 5.26962e-08 0.14107 0.0306487 0.969351 
66 1.0283e-18 1.15597e-20 1.21534e-20 7.18512e-26 4.94757e-08 0.112318 0.0303822 0.969618 
76 7.17216e-19 2.45328e-20 2.98552e-20 7.17838e-26 7.73818e-08 0.294231 0.0320539 0.967946 
86 7.1186e-19 2.46811e-20 2.97012e-20 7.17895e-26 7.4162e-08 0.282512 0.0319119 0.968088 
96 7.35413e-19 2.37066e-20 2.82884e-20 7.17975e-26 7.14225e-08 0.268214 0.0317122 0.968288 
106 7.78512e-19 2.21302e-20 2.63713e-20 7.18162e-26 6.71207e-08 0.243557 0.0312503 0.96875 
116 8.32424e-19 2.00089e-20 2.35413e-20 7.18055e-26 6.22437e-08 0.212953 0.0315148 0.968485 
126 8.97401e-19 1.76618e-20 2.036e-20 7.18303e-26 5.73547e-08 0.178124 0.0308999 0.9691 
136 9.65147e-19 1.46326e-20 1.65633e-20 7.18328e-26 5.27609e-08 0.142668 0.0308374 0.969163 
146 6.40387e-19 2.78187e-20 3.46408e-20 7.17757e-26 8.92385e-08 0.343444 0.0322534 0.967747 
156 6.30898e-19 2.81854e-20 3.51673e-20 7.17894e-26 8.52176e-08 0.327996 0.031915 0.968085 
166 6.5761e-19 2.71039e-20 3.37977e-20 7.17931e-26 8.13998e-08 0.311895 0.0318225 0.968177 
283 9.95447e-19 1.29978e-20 1.40358e-20 7.17922e-26 5.24462e-08 0.135971 0.0318439 0.968156 
284 8.74548e-19 1.88191e-20 2.16036e-20 7.17638e-26 6.13342e-08 0.203849 0.0325495 0.96745 
291 1.14198e-18 5.91394e-21 4.78056e-21 7.18268e-26 4.36069e-08 0.0553129 0.030986 0.969014 
292 1.07961e-18 9.19788e-21 8.77012e-21 7.1811e-26 4.64491e-08 0.0878765 0.0313796 0.96862 
293 9.91909e-19 1.32851e-20 1.43698e-20 7.17873e-26 5.108e-08 0.133889 0.0319652 0.968035 
294 8.68922e-19 1.86902e-20 2.16654e-20 7.17659e-26 5.93488e-08 0.199363 0.0324977 0.967502 
301 1.14363e-18 5.84681e-21 4.60634e-21 7.18371e-26 4.35404e-08 0.054248 0.0307316 0.969268 
302 1.08359e-18 9.09777e-21 8.45328e-21 7.18052e-26 4.62565e-08 0.0854921 0.0315216 0.968478 
303 1.00146e-18 1.28228e-20 1.36381e-20 7.17963e-26 5.05468e-08 0.128848 0.0317426 0.968257 
304 8.85334e-19 1.80775e-20 2.08038e-20 7.17787e-26 5.81806e-08 0.190165 0.0321785 0.967821 
311 1.15049e-18 5.54075e-21 4.33802e-21 7.18372e-26 4.32441e-08 0.0503894 0.0307307 0.969269 
312 1.09606e-18 8.41653e-21 7.96782e-21 7.18184e-26 4.57069e-08 0.0788953 0.0311945 0.968805 
313 1.01742e-18 1.21509e-20 1.28666e-20 7.18093e-26 4.97011e-08 0.119848 0.0314214 0.968579 
314 9.09269e-19 1.71859e-20 1.95896e-20 7.1769e-26 5.63497e-08 0.176297 0.0324198 0.96758 
321 1.1575e-18 5.27689e-21 3.99761e-21 7.18455e-26 4.29809e-08 0.0463623 0.0305242 0.969476 
322 1.10856e-18 7.84686e-21 7.31658e-21 7.18296e-26 4.51579e-08 0.0719795 0.0309175 0.969082 
323 1.03855e-18 1.12413e-20 1.17597e-20 7.17951e-26 4.86328e-08 0.108314 0.0317728 0.968227 
324 9.42252e-19 1.59154e-20 1.79732e-20 7.17829e-26 5.42247e-08 0.158062 0.0320748 0.967925 
331 1.16623e-18 4.97309e-21 3.61084e-21 7.18435e-26 4.26551e-08 0.0414633 0.0305739 0.969426 
332 1.1229e-18 7.12881e-21 6.49946e-21 7.18128e-26 4.45225e-08 0.0639553 0.0313348 0.968665 
333 1.06312e-18 1.02707e-20 1.04774e-20 7.18063e-26 4.73062e-08 0.094743 0.0314947 0.968505 
334 9.80359e-19 1.44566e-20 1.55056e-20 7.18101e-26 5.19237e-08 0.137802 0.0314005 0.968599 
341 1.17539e-18 4.65135e-21 3.12535e-21 7.18536e-26 4.22857e-08 0.0362461 0.0303234 0.969677 
342 1.14201e-18 6.32347e-21 5.49192e-21 7.18418e-26 4.37222e-08 0.0538951 0.0306152 0.969385 
343 1.09279e-18 8.90379e-21 8.61896e-21 7.18204e-26 4.59113e-08 0.0794749 0.0311462 0.968854 
344 1.02605e-18 1.20579e-20 1.29529e-20 7.18179e-26 4.93032e-08 0.113889 0.0312071 0.968793 
351 1.13453e-18 6.18106e-21 5.04117e-21 7.18219e-26 4.41896e-08 0.0594926 0.0311082 0.968892 
352 1.06843e-18 9.59536e-21 9.37466e-21 7.17907e-26 4.78582e-08 0.0949725 0.0318811 0.968119 
353 9.77261e-19 1.38743e-20 1.50068e-20 7.17727e-26 5.35758e-08 0.14507 0.0323285 0.967672 
354 8.49679e-19 1.97882e-20 2.26483e-20 7.17503e-26 6.35481e-08 0.216951 0.0328833 0.967117 
361 1.13364e-18 6.38349e-21 5.08563e-21 7.18202e-26 4.39937e-08 0.0596856 0.0311516 0.968848 
362 1.06659e-18 9.7598e-21 9.45237e-21 7.17982e-26 4.71603e-08 0.0946486 0.031696 0.968304 
363 9.75113e-19 1.4169e-20 1.51517e-20 7.1774e-26 5.22117e-08 0.142648 0.0322959 0.967704 
364 8.43881e-19 1.97346e-20 2.30081e-20 7.17642e-26 6.14586e-08 0.212041 0.0325401 0.96746 
371 1.13862e-18 6.13964e-21 4.89059e-21 7.18241e-26 4.37949e-08 0.0569128 0.0310535 0.968947 
372 1.0754e-18 9.47594e-21 9.0812e-21 7.18001e-26 4.67205e-08 0.0897659 0.0316492 0.968351 
373 9.85917e-19 1.39248e-20 1.48303e-20 7.17774e-26 5.15542e-08 0.136573 0.0322105 0.967789 
374 8.60454e-19 1.96154e-20 2.25738e-20 7.1776e-26 6.00668e-08 0.202416 0.0322452 0.967755 
381 1.14337e-18 5.9487e-21 4.72052e-21 7.18273e-26 4.36328e-08 0.054314 0.030975 0.969025 
382 1.08408e-18 8.97674e-21 8.48331e-21 7.18087e-26 4.63578e-08 0.0850821 0.0314345 0.968565 
383 1.00171e-18 1.29362e-20 1.39993e-20 7.17924e-26 5.06756e-08 0.128051 0.0318399 0.96816 
384 8.87601e-19 1.856e-20 2.12299e-20 7.17852e-26 5.81544e-08 0.187614 0.0320178 0.967982 
391 1.14965e-18 5.69637e-21 4.33703e-21 7.18363e-26 4.33043e-08 0.0504738 0.030753 0.969247 
392 1.09796e-18 8.23436e-21 7.93862e-21 7.18201e-26 4.56409e-08 0.0775767 0.0311536 0.968846 
393 1.02436e-18 1.20637e-20 1.27683e-20 7.18014e-26 4.94114e-08 0.115658 0.0316164 0.968384 
394 9.22669e-19 1.70267e-20 1.94309e-20 7.17935e-26 5.57021e-08 0.168551 0.0318123 0.968188 
401 1.16064e-18 5.18321e-21 3.78183e-21 7.18491e-26 4.28397e-08 0.0445895 0.0304347 0.969565 
402 1.11323e-18 7.75868e-21 7.29094e-21 7.1831e-26 4.4944e-08 0.0689835 0.0308827 0.969117 
403 1.05098e-18 1.09505e-20 1.1573e-20 7.18185e-26 4.80286e-08 0.101268 0.0311917 0.968808 
404 9.59857e-19 1.53041e-20 1.7368e-20 7.18014e-26 5.32287e-08 0.148162 0.0316168 0.968383 
411 1.17061e-18 4.92793e-21 3.44065e-21 7.18536e-26 4.24494e-08 0.0390239 0.0303238 0.969676 
412 1.13404e-18 6.86137e-21 6.03362e-21 7.18363e-26 4.40268e-08 0.0579722 0.0307506 0.969249 
413 1.08154e-18 9.41405e-21 9.54562e-21 7.18243e-26 4.64245e-08 0.0852707 0.0310498 0.96895 
414 1.00569e-18 1.2929e-20 1.43145e-20 7.18052e-26 5.04099e-08 0.124236 0.0315233 0.968477 
421 1.13022e-18 6.2717e-21 5.35687e-21 7.18224e-26 4.44226e-08 0.0619443 0.0310969 0.968903 
422 1.06226e-18 9.83741e-21 9.87091e-21 7.17975e-26 4.82908e-08 0.0984696 0.0317125 0.968288 
423 9.68045e-19 1.4476e-20 1.59195e-20 7.1783e-26 5.42761e-08 0.14979 0.0320724 0.967928 
424 8.33579e-19 2.06678e-20 2.4347e-20 7.17683e-26 6.51069e-08 0.22457 0.0324384 0.967562 
431 1.12903e-18 6.4985e-21 5.3767e-21 7.1822e-26 4.41732e-08 0.06207 0.0311059 0.968894 
432 1.06139e-18 9.99868e-21 9.96849e-21 7.17923e-26 4.7358e-08 0.0970664 0.0318429 0.968157 
433 9.63918e-19 1.47188e-20 1.63358e-20 7.17742e-26 5.28825e-08 0.147831 0.0322908 0.967709 
434 8.28847e-19 2.08337e-20 2.42097e-20 7.17692e-26 6.29291e-08 0.218978 0.0324158 0.967584 
441 1.13302e-18 6.36055e-21 5.2361e-21 7.18244e-26 4.40168e-08 0.0600055 0.0310471 0.968953 
442 1.06639e-18 9.92395e-21 9.84411e-21 7.18081e-26 4.72517e-08 0.0946171 0.0314505 0.96855 
443 9.74216e-19 1.44569e-20 1.57742e-20 7.17765e-26 5.23231e-08 0.142182 0.0322331 0.967767 
444 8.45679e-19 2.00811e-20 2.38811e-20 7.17577e-26 6.15099e-08 0.209601 0.0326998 0.9673 
451 1.139e-18 6.13354e-21 5.07919e-21 7.18371e-26 4.37481e-08 0.0565167 0.0307315 0.969268 
452 1.07807e-18 9.40302e-21 9.26092e-21 7.18241e-26 4.65826e-08 0.0880023 0.0310551 0.968945 
453 9.90783e-19 1.34898e-20 1.46767e-20 7.18104e-26 5.13271e-08 0.133429 0.0313935 0.968607 
454 8.71829e-19 1.91033e-20 2.24544e-20 7.17886e-26 5.94015e-08 0.195089 0.0319328 0.968067 
455 7.16954e-19 2.60463e-20 3.20293e-20 7.17846e-26 7.45648e-08 0.27677 0.0320334 0.967967 
461 1.14665e-18 5.7941e-21 4.64601e-21 7.18408e-26 4.34776e-08 0.0523371 0.0306396 0.96936 
462 1.09135e-18 8.76597e-21 8.55185e-21 7.18207e-26 4.60988e-08 0.0810404 0.0311379 0.968862 
463 1.01406e-18 1.25783e-20 1.36616e-20 7.18152e-26 5.00571e-08 0.120879 0.0312738 0.968726 
464 9.06877e-19 1.78805e-20 2.093e-20 7.17985e-26 5.6888e-08 0.176148 0.0316894 0.968311 
465 7.64806e-19 2.40586e-20 2.97287e-20 7.18044e-26 6.93287e-08 0.250128 0.0315433 0.968457 
471 1.15666e-18 5.37111e-21 4.13363e-21 7.18476e-26 4.30879e-08 0.0465994 0.0304723 0.969528 
472 1.10741e-18 8.10004e-21 7.61135e-21 7.18186e-26 4.53226e-08 0.0721991 0.0311909 0.968809 
473 1.04065e-18 1.15925e-20 1.21707e-20 7.17991e-26 4.86644e-08 0.106595 0.0316725 0.968328 
474 9.48095e-19 1.62273e-20 1.84876e-20 7.1793e-26 5.41087e-08 0.153998 0.031826 0.968174 
475 8.21886e-19 2.2012e-20 2.65221e-20 7.1803e-26 6.3895e-08 0.218994 0.031576 0.968424 
481 1.1678e-18 5.01905e-21 3.5203e-21 7.18448e-26 4.25976e-08 0.0405128 0.0305418 0.969458 
482 1.12851e-18 7.25437e-21 6.4267e-21 7.18323e-26 4.42395e-08 0.0609322 0.0308499 0.96915 
483 1.07376e-18 9.84784e-21 1.01374e-20 7.18198e-26 4.68112e-08 0.0892731 0.0311597 0.96884 
484 9.94426e-19 1.3717e-20 1.53533e-20 7.18184e-26 5.1063e-08 0.129936 0.0311949 0.968805 
485 8.88422e-19 1.88251e-20 2.21136e-20 7.18031e-26 5.81386e-08 0.183083 0.0315748 0.968425 
306 5.39486e-19 3.21918e-20 4.08704e-20 7.18044e-26 1.03315e-07 0.380139 0.031543 0.968457 
316 5.88787e-19 3.08108e-20 3.91109e-20 7.18124e-26 9.34807e-08 0.349141 0.0313447 0.968655 
326 6.51289e-19 2.87551e-20 3.59759e-20 7.18206e-26 8.33923e-08 0.312314 0.031142 0.968858 
336 7.21743e-19 2.56555e-20 3.21013e-20 7.18332e-26 7.39607e-08 0.270444 0.030828 0.969172 
346 8.09968e-19 2.18706e-20 2.68933e-20 7.18317e-26 6.45807e-08 0.221823 0.0308653 0.969135 
356 4.71213e-19 3.42646e-20 4.40718e-20 7.18224e-26 1.29173e-07 0.447209 0.0310957 0.968904 
366 4.70236e-19 3.42905e-20 4.41194e-20 7.17984e-26 1.21746e-07 0.421376 0.031692 0.968308 
376 5.0493e-19 3.38042e-20 4.31092e-20 7.18139e-26 1.12136e-07 0.398644 0.0313057 0.968694 
386 5.5402e-19 3.24661e-20 4.15927e-20 7.18298e-26 1.00803e-07 0.368186 0.0309119 0.969088 
215 7.57496e-19 2.38214e-20 2.84977e-20 7.17663e-26 7.2929e-08 0.272907 0.0324862 0.967514 
225 7.48571e-19 2.39436e-20 2.85627e-20 7.17518e-26 7.00906e-08 0.263977 0.032846 0.967154 
235 7.71848e-19 2.31354e-20 2.74107e-20 7.1773e-26 6.79039e-08 0.25118 0.0323205 0.967679 
245 8.05751e-19 2.15732e-20 2.58329e-20 7.1784e-26 6.46206e-08 0.231243 0.0320469 0.967953 
285 7.12052e-19 2.55547e-20 3.12441e-20 7.17632e-26 7.84645e-08 0.298587 0.0325641 0.967436 
295 7.03951e-19 2.58604e-20 3.15375e-20 7.17573e-26 7.54711e-08 0.288459 0.032711 0.967289 
305 7.26721e-19 2.49166e-20 3.05091e-20 7.17653e-26 7.2874e-08 0.275081 0.0325113 0.967489 
315 7.63844e-19 2.34198e-20 2.86518e-20 7.17758e-26 6.88362e-08 0.253247 0.0322502 0.96775 
325 8.12637e-19 2.16924e-20 2.60636e-20 7.17994e-26 6.4315e-08 0.225964 0.0316653 0.968335 
335 8.6658e-19 1.94529e-20 2.30478e-20 7.18053e-26 5.9781e-08 0.196289 0.0315203 0.96848 
345 9.30599e-19 1.6201e-20 1.89321e-20 7.1818e-26 5.50326e-08 0.162293 0.0312039 0.968796 
355 6.77781e-19 2.69549e-20 3.28918e-20 7.17662e-26 8.32654e-08 0.317061 0.0324903 0.96751 
365 6.70851e-19 2.70576e-20 3.35045e-20 7.17572e-26 7.99342e-08 0.305364 0.0327119 0.967288 
375 6.97915e-19 2.63352e-20 3.19021e-20 7.17805e-26 7.64224e-08 0.289515 0.0321335 0.967867 
385 7.35299e-19 2.50322e-20 3.07127e-20 7.17928e-26 7.22069e-08 0.268617 0.0318307 0.968169 
395 7.84245e-19 2.32301e-20 2.84308e-20 7.18011e-26 6.7167e-08 0.240857 0.0316243 0.968376 
405 8.38817e-19 2.10111e-20 2.4893e-20 7.17945e-26 6.21815e-08 0.210246 0.0317869 0.968213 
415 9.06261e-19 1.75647e-20 2.10205e-20 7.18048e-26 5.68762e-08 0.174816 0.0315328 0.968467 
425 6.58221e-19 2.77377e-20 3.45524e-20 7.17674e-26 8.64654e-08 0.325796 0.0324584 0.967542 
435 6.53248e-19 2.7975e-20 3.48465e-20 7.17608e-26 8.28487e-08 0.313094 0.0326236 0.967376 
445 6.78455e-19 2.73646e-20 3.3827e-20 7.17807e-26 7.94103e-08 0.29872 0.0321294 0.967871 
265 9.01331e-19 1.75135e-20 2.08859e-20 7.1805e-26 5.70446e-08 0.177939 0.0315278 0.968472 
275 9.61893e-19 1.48732e-20 1.72289e-20 7.18222e-26 5.29387e-08 0.145835 0.0311013 0.968899 
7 6.44902e-19 2.56724e-20 3.11354e-20 7.18059e-26 8.6361e-08 0.328007 0.0315061 0.968494 
8 4.60068e-19 3.05829e-20 3.88202e-20 7.18815e-26 1.3032e-07 0.432597 0.0296343 0.970366 
17 6.53603e-19 2.52661e-20 3.1069e-20 7.18204e-26 8.34431e-08 0.316224 0.0311447 0.968855 
18 4.76161e-19 3.02e-20 3.84273e-20 7.19022e-26 1.22907e-07 0.413221 0.0291207 0.970879 
27 6.88847e-19 2.39476e-20 2.93406e-20 7.18371e-26 7.85902e-08 0.295159 0.0307321 0.969268 
28 5.23323e-19 2.91819e-20 3.72249e-20 7.18979e-26 1.10121e-07 0.382169 0.0292272 0.970773 
37 7.42685e-19 2.2439e-20 2.71579e-20 7.18379e-26 7.22799e-08 0.264063 0.0307118 0.969288 
38 5.96741e-19 2.7169e-20 3.44234e-20 7.18805e-26 9.44914e-08 0.336564 0.0296574 0.970343 
47 8.09636e-19 2.02052e-20 2.42006e-20 7.18355e-26 6.53904e-08 0.225483 0.0307717 0.969228 
48 6.90425e-19 2.48243e-20 3.11467e-20 7.18752e-26 7.986e-08 0.282225 0.029789 0.970211 
57 8.84624e-19 1.76858e-20 2.05198e-20 7.18377e-26 5.91555e-08 0.184401 0.030718 0.969282 
58 7.91282e-19 2.18049e-20 2.70865e-20 7.18755e-26 6.81905e-08 0.226995 0.0297829 0.970217 
67 9.60723e-19 1.4576e-20 1.66877e-20 7.1852e-26 5.37484e-08 0.144466 0.0303627 0.969637 
68 8.93129e-19 1.80712e-20 2.16122e-20 7.18766e-26 5.90453e-08 0.174067 0.0297535 0.970247 
77 5.3109e-19 3.13272e-20 3.95666e-20 7.18285e-26 1.10214e-07 0.402493 0.0309461 0.969054 
78 3.33855e-19 3.59136e-20 4.67986e-20 7.19206e-26 1.94149e-07 0.531706 0.0286658 0.971334 
87 5.27694e-19 3.09967e-20 3.92227e-20 7.18401e-26 1.05216e-07 0.38308 0.0306581 0.969342 
88 3.36004e-19 3.55058e-20 4.60756e-20 7.19249e-26 1.82435e-07 0.500125 0.0285617 0.971438 
97 5.60235e-19 2.98055e-20 3.75706e-20 7.18387e-26 9.81271e-08 0.361396 0.0306935 0.969307 
98 3.73542e-19 3.45629e-20 4.48219e-20 7.19265e-26 1.60269e-07 0.467948 0.0285221 0.971478 
107 6.16122e-19 2.80817e-20 3.49989e-20 7.1854e-26 8.81819e-08 0.327697 0.0303149 0.969685 
108 4.4067e-19 3.3091e-20 4.24488e-20 7.19248e-26 1.32072e-07 0.420274 0.0285637 0.971436 
117 6.91516e-19 2.55837e-20 3.1501e-20 7.18492e-26 7.73705e-08 0.283501 0.0304322 0.969568 
118 5.35996e-19 3.07508e-20 3.96616e-20 7.19143e-26 1.05291e-07 0.359382 0.0288224 0.971178 
127 7.79228e-19 2.25568e-20 2.76358e-20 7.18517e-26 6.76857e-08 0.235173 0.0303701 0.96963 
128 6.52796e-19 2.75097e-20 3.51485e-20 7.1907e-26 8.38423e-08 0.292078 0.0290016 0.970998 
137 8.74577e-19 1.86971e-20 2.27053e-20 7.18461e-26 5.92012e-08 0.184895 0.0305101 0.96949 
138 7.7936e-19 2.33108e-20 2.92287e-20 7.18904e-26 6.83063e-08 0.225832 0.0294126 0.970587 
147 4.44223e-19 3.4999e-20 4.5262e-20 7.18416e-26 1.38801e-07 0.469109 0.0306217 0.969378 
148 2.53696e-19 3.86125e-20 5.08664e-20 7.19646e-26 2.80936e-07 0.623063 0.0275796 0.97242 
157 4.37851e-19 3.49695e-20 4.50607e-20 7.18591e-26 1.31855e-07 0.441699 0.0301876 0.969812 
158 2.54404e-19 3.84471e-20 5.07736e-20 7.1982e-26 2.60915e-07 0.577844 0.0271521 0.972848 
167 4.69667e-19 3.38821e-20 4.31647e-20 7.18553e-26 1.21112e-07 0.417583 0.0302815 0.969719 
168 2.85077e-19 3.77489e-20 4.95303e-20 7.19641e-26 2.24937e-07 0.541636 0.0275927 0.972407 
177 5.21433e-19 3.20057e-20 4.07622e-20 7.18453e-26 1.07152e-07 0.382489 0.0305298 0.96947 
178 3.36842e-19 3.64826e-20 4.77093e-20 7.1953e-26 1.83006e-07 0.493355 0.0278663 0.972134 
187 5.92215e-19 2.96228e-20 3.74848e-20 7.18652e-26 9.24721e-08 0.337501 0.0300372 0.969963 
188 4.17858e-19 3.45922e-20 4.50135e-20 7.19403e-26 1.41203e-07 0.430444 0.0281808 0.971819 
197 6.87095e-19 2.63155e-20 3.36676e-20 7.18564e-26 7.81247e-08 0.282535 0.0302538 0.969746 
198 5.3284e-19 3.18846e-20 4.15933e-20 7.19196e-26 1.06227e-07 0.356134 0.0286919 0.971308 
207 7.94103e-19 2.22238e-20 2.77263e-20 7.18475e-26 6.60832e-08 0.224732 0.0304747 0.969525 
208 6.73371e-19 2.76737e-20 3.55702e-20 7.18962e-26 8.07085e-08 0.277124 0.0292701 0.97073 
307 3.50689e-19 3.84218e-20 5.04183e-20 7.18984e-26 1.75444e-07 0.50207 0.0292163 0.970784 
308 1.81548e-19 3.82462e-20 5.07775e-20 7.20463e-26 4.10933e-07 0.663088 0.0255663 0.974434 
317 4.02131e-19 3.7304e-20 4.88239e-20 7.18789e-26 1.48725e-07 0.461718 0.0296987 0.970301 
318 2.2861e-19 3.93296e-20 5.26164e-20 7.20213e-26 3.06919e-07 0.601685 0.0261817 0.973818 
327 4.67094e-19 3.5483e-20 4.57844e-20 7.18856e-26 1.24486e-07 0.415327 0.029533 0.970467 
328 2.89692e-19 3.8752e-20 5.16224e-20 7.19844e-26 2.27136e-07 0.53467 0.0270912 0.972909 