ITEM: TIMESTEP
10600
ITEM: NUMBER OF CELLS
15500
ITEM: BOX BOUNDS oo oo oo
-2.505 0.895
-2.5 2.5
-2.5 2.5
ITEM: CELLS id f_2[1] f_2[2] f_2[3] f_2[4] f_2[5] f_2[6] f_2[7] f_2[8] 
1 1.19806e-18 3.55158e-21 2.24616e-21 7.18718e-26 4.13923e-08 0.0243365 0.0298721 0.970128 
2 1.17791e-18 4.53712e-21 3.79606e-21 7.18675e-26 4.22033e-08 0.0354535 0.029979 0.970021 
3 1.1548e-18 5.8237e-21 5.46549e-21 7.18342e-26 4.31812e-08 0.048059 0.0308032 0.969197 
4 1.12159e-18 7.45556e-21 8.00155e-21 7.18455e-26 4.46116e-08 0.0657895 0.0305239 0.969476 
11 1.19175e-18 3.87036e-21 2.57412e-21 7.18686e-26 4.16325e-08 0.0280493 0.0299532 0.970047 
12 1.16688e-18 4.89526e-21 4.29667e-21 7.18749e-26 4.25865e-08 0.0417192 0.0297975 0.970203 
13 1.13621e-18 6.46842e-21 6.57875e-21 7.18691e-26 4.39818e-08 0.0584834 0.0299403 0.97006 
14 1.09358e-18 8.11985e-21 9.76165e-21 7.18356e-26 4.59649e-08 0.0808566 0.0307687 0.969231 
21 1.18599e-18 4.04018e-21 3.12053e-21 7.18738e-26 4.17513e-08 0.031451 0.0298226 0.970177 
22 1.16003e-18 5.28745e-21 4.73883e-21 7.18556e-26 4.28009e-08 0.0452653 0.030275 0.969725 
23 1.12298e-18 7.01814e-21 7.22387e-21 7.1836e-26 4.44181e-08 0.0650649 0.0307585 0.969241 
24 1.07277e-18 9.06146e-21 1.11694e-20 7.18344e-26 4.6894e-08 0.0926894 0.0307984 0.969202 
31 1.18079e-18 4.13407e-21 2.99876e-21 7.18536e-26 4.20832e-08 0.0341907 0.0303231 0.969677 
32 1.15235e-18 5.53698e-21 4.98948e-21 7.18288e-26 4.31208e-08 0.0494822 0.0309379 0.969062 
33 1.11198e-18 7.32075e-21 7.63859e-21 7.18409e-26 4.49626e-08 0.0717077 0.0306383 0.969362 
34 1.05044e-18 9.58448e-21 1.16585e-20 7.18196e-26 4.79608e-08 0.105526 0.0311643 0.968836 
41 1.1771e-18 4.4055e-21 3.18736e-21 7.18518e-26 4.22269e-08 0.03623 0.0303693 0.969631 
42 1.14664e-18 5.84494e-21 5.47755e-21 7.18502e-26 4.35917e-08 0.0532554 0.0304083 0.969592 
43 1.10386e-18 7.97857e-21 8.44792e-21 7.18202e-26 4.53269e-08 0.0764402 0.0311512 0.968849 
44 1.03607e-18 1.05106e-20 1.32172e-20 7.18332e-26 4.87239e-08 0.113355 0.030828 0.969172 
51 1.17518e-18 4.31306e-21 3.70866e-21 7.18488e-26 4.2272e-08 0.0372308 0.0304421 0.969558 
52 1.14306e-18 6.13768e-21 6.04917e-21 7.18634e-26 4.37131e-08 0.0550292 0.0300813 0.969919 
53 1.0942e-18 8.32139e-21 9.37828e-21 7.18551e-26 4.58417e-08 0.0817566 0.0302866 0.969713 
54 1.02274e-18 1.11639e-20 1.38153e-20 7.18277e-26 4.94969e-08 0.120542 0.0309644 0.969036 
61 1.17408e-18 4.54831e-21 3.40986e-21 7.18676e-26 4.22537e-08 0.0385802 0.0299779 0.970022 
62 1.14122e-18 6.18277e-21 5.80745e-21 7.18639e-26 4.36038e-08 0.0564187 0.0300693 0.969931 
63 1.09122e-18 8.26189e-21 9.18181e-21 7.18243e-26 4.59125e-08 0.0839411 0.0310498 0.96895 
64 1.01823e-18 1.17928e-20 1.37884e-20 7.18321e-26 4.97843e-08 0.123874 0.030855 0.969145 
151 1.19072e-18 3.96174e-21 3.03362e-21 7.18728e-26 4.16234e-08 0.0285946 0.0298479 0.970152 
152 1.16912e-18 5.20419e-21 4.41243e-21 7.18502e-26 4.24701e-08 0.0402331 0.0304089 0.969591 
153 1.13333e-18 7.2129e-21 7.01134e-21 7.18656e-26 4.39383e-08 0.0597632 0.0300268 0.969973 
154 1.08721e-18 9.43679e-21 1.06554e-20 7.18386e-26 4.60636e-08 0.0835525 0.0306949 0.969305 
161 1.18045e-18 4.67947e-21 3.30104e-21 7.18625e-26 4.1973e-08 0.0340145 0.0301025 0.969898 
162 1.15292e-18 5.96837e-21 5.25452e-21 7.18533e-26 4.31052e-08 0.0485855 0.030332 0.969668 
163 1.11043e-18 8.06032e-21 9.1159e-21 7.18455e-26 4.5032e-08 0.0710009 0.0305241 0.969476 
164 1.05552e-18 1.08648e-20 1.29415e-20 7.18035e-26 4.77379e-08 0.10082 0.0315644 0.968436 
171 1.17862e-18 4.57877e-21 3.55783e-21 7.18713e-26 4.22623e-08 0.0354358 0.0298854 0.970115 
172 1.14308e-18 6.61169e-21 6.13969e-21 7.18704e-26 4.37209e-08 0.0550191 0.029908 0.970092 
173 1.09646e-18 8.76958e-21 9.63352e-21 7.18571e-26 4.57854e-08 0.080359 0.0302364 0.969764 
174 1.02875e-18 1.20606e-20 1.43176e-20 7.18185e-26 4.89233e-08 0.115527 0.0311929 0.968807 
181 1.16988e-18 4.76412e-21 3.96269e-21 7.18488e-26 4.24077e-08 0.0403568 0.030443 0.969557 
182 1.13159e-18 6.64117e-21 6.76434e-21 7.18183e-26 4.39718e-08 0.0601912 0.0311973 0.968803 
183 1.08127e-18 8.97632e-21 1.05523e-20 7.1821e-26 4.63895e-08 0.0877149 0.0311307 0.968869 
184 1.01215e-18 1.2557e-20 1.51555e-20 7.18141e-26 5.00457e-08 0.124757 0.0313021 0.968698 
191 1.1671e-18 5.05254e-21 4.1353e-21 7.18577e-26 4.25214e-08 0.0420527 0.030221 0.969779 
192 1.12374e-18 7.15346e-21 7.25157e-21 7.18325e-26 4.41783e-08 0.0651972 0.0308459 0.969154 
193 1.06591e-18 1.02011e-20 1.14716e-20 7.17993e-26 4.70129e-08 0.0957916 0.0316684 0.968332 
194 9.85853e-19 1.35188e-20 1.74945e-20 7.18145e-26 5.14552e-08 0.139277 0.0312906 0.968709 
201 1.16272e-18 5.08223e-21 4.32267e-21 7.18443e-26 4.27202e-08 0.0449734 0.0305549 0.969445 
202 1.11891e-18 7.44606e-21 7.53002e-21 7.17961e-26 4.44019e-08 0.0673738 0.0317478 0.968252 
203 1.05753e-18 1.05585e-20 1.21574e-20 7.18364e-26 4.74946e-08 0.100742 0.0307487 0.969251 
204 9.71917e-19 1.44516e-20 1.83464e-20 7.18107e-26 5.21942e-08 0.146614 0.031385 0.968615 
211 1.16061e-18 5.28187e-21 4.35868e-21 7.18386e-26 4.28077e-08 0.045488 0.0306959 0.969304 
212 1.11821e-18 7.3185e-21 7.51126e-21 7.18318e-26 4.45414e-08 0.0687055 0.030863 0.969137 
213 1.05108e-18 1.05209e-20 1.23674e-20 7.18477e-26 4.77014e-08 0.104541 0.0304704 0.96953 
214 9.61886e-19 1.47387e-20 1.85608e-20 7.18117e-26 5.27159e-08 0.152273 0.0313615 0.968639 
301 1.17946e-18 4.27733e-21 3.58963e-21 7.18524e-26 4.20633e-08 0.0346752 0.0303521 0.969648 
302 1.15444e-18 5.81686e-21 5.35808e-21 7.18426e-26 4.31398e-08 0.0483364 0.0305958 0.969404 
303 1.11296e-18 7.9003e-21 8.87286e-21 7.18267e-26 4.49665e-08 0.0705332 0.0309891 0.969011 
304 1.06338e-18 1.00765e-20 1.27479e-20 7.18233e-26 4.72516e-08 0.0970592 0.0310728 0.968927 
311 1.17371e-18 4.45483e-21 3.84518e-21 7.18739e-26 4.23885e-08 0.0381512 0.0298204 0.97018 
312 1.13665e-18 6.64327e-21 6.91412e-21 7.18684e-26 4.398e-08 0.0581495 0.0299572 0.970043 
313 1.08903e-18 8.75688e-21 1.09343e-20 7.18517e-26 4.61191e-08 0.082944 0.0303713 0.969629 
314 1.02274e-18 1.24565e-20 1.53539e-20 7.18272e-26 4.94283e-08 0.117683 0.030976 0.969024 
321 1.16386e-18 5.28138e-21 4.30975e-21 7.18611e-26 4.27524e-08 0.0438428 0.0301392 0.969861 
322 1.12441e-18 7.19401e-21 7.25725e-21 7.18553e-26 4.44884e-08 0.0649228 0.0302814 0.969719 
323 1.06984e-18 9.92899e-21 1.18596e-20 7.18397e-26 4.701e-08 0.0936606 0.0306678 0.969332 
324 9.91313e-19 1.37278e-20 1.65496e-20 7.18137e-26 5.11729e-08 0.135377 0.0313113 0.968689 
331 1.16086e-18 5.33173e-21 4.35718e-21 7.18448e-26 4.28357e-08 0.0458536 0.0305409 0.969459 
332 1.1165e-18 7.66637e-21 7.89116e-21 7.18452e-26 4.48906e-08 0.0696809 0.0305304 0.96947 
333 1.05408e-18 1.05781e-20 1.24306e-20 7.18071e-26 4.78292e-08 0.102083 0.0314746 0.968525 
334 9.63941e-19 1.50289e-20 1.86485e-20 7.18309e-26 5.28477e-08 0.150795 0.030885 0.969115 
341 1.15386e-18 5.23839e-21 4.43288e-21 7.18484e-26 4.31897e-08 0.0497439 0.0304531 0.969547 
342 1.10851e-18 7.95125e-21 7.94e-21 7.18362e-26 4.5375e-08 0.0742413 0.0307554 0.969245 
343 1.03742e-18 1.15157e-20 1.3708e-20 7.18162e-26 4.87126e-08 0.112051 0.0312496 0.96875 
344 9.39962e-19 1.63733e-20 2.05637e-20 7.18032e-26 5.4206e-08 0.16324 0.031573 0.968427 
351 1.14952e-18 5.51653e-21 4.9784e-21 7.18602e-26 4.33319e-08 0.0523781 0.0301594 0.969841 
352 1.09753e-18 8.35391e-21 8.93074e-21 7.18613e-26 4.57468e-08 0.0804212 0.0301327 0.969867 
353 1.02911e-18 1.16384e-20 1.34388e-20 7.18272e-26 4.90595e-08 0.116614 0.0309763 0.969024 
354 9.2783e-19 1.615e-20 2.08501e-20 7.18316e-26 5.50578e-08 0.17139 0.0308679 0.969132 
361 1.14892e-18 5.63568e-21 5.24778e-21 7.18586e-26 4.33556e-08 0.0520818 0.030201 0.969799 
362 1.09379e-18 8.33991e-21 9.11379e-21 7.18294e-26 4.59425e-08 0.0819997 0.0309218 0.969078 
363 1.01799e-18 1.19123e-20 1.44428e-20 7.17785e-26 4.96918e-08 0.122435 0.0321849 0.967815 
364 9.13317e-19 1.75034e-20 2.23282e-20 7.17892e-26 5.61278e-08 0.178656 0.0319183 0.968082 
451 1.17476e-18 4.64944e-21 4.05104e-21 7.18702e-26 4.24402e-08 0.0379088 0.0299116 0.970088 
452 1.14075e-18 6.83407e-21 6.16309e-21 7.18617e-26 4.37862e-08 0.0559708 0.0301229 0.969877 
453 1.0943e-18 8.89299e-21 9.64922e-21 7.18505e-26 4.59046e-08 0.0806081 0.0303991 0.969601 
454 1.0353e-18 1.1536e-20 1.42149e-20 7.18419e-26 4.88938e-08 0.111788 0.0306134 0.969387 
461 1.16377e-18 5.22027e-21 4.5796e-21 7.18501e-26 4.26856e-08 0.0433843 0.0304097 0.96959 
462 1.12524e-18 6.89871e-21 7.14357e-21 7.18135e-26 4.43471e-08 0.0635326 0.0313166 0.968683 
463 1.06942e-18 9.99748e-21 1.15124e-20 7.18023e-26 4.69001e-08 0.0935329 0.0315946 0.968405 
464 9.93895e-19 1.36506e-20 1.75297e-20 7.18211e-26 5.11258e-08 0.13319 0.0311284 0.968872 
471 1.15902e-18 5.29403e-21 4.82924e-21 7.18532e-26 4.28703e-08 0.0462878 0.030333 0.969667 
472 1.11432e-18 7.69302e-21 8.26321e-21 7.18636e-26 4.48338e-08 0.0697274 0.0300769 0.969923 
473 1.04763e-18 1.13193e-20 1.30518e-20 7.18606e-26 4.80817e-08 0.105789 0.0301491 0.969851 
474 9.57491e-19 1.55311e-20 2.03461e-20 7.18372e-26 5.33814e-08 0.153326 0.0307299 0.96927 
481 1.1516e-18 5.60599e-21 5.39692e-21 7.18394e-26 4.31997e-08 0.0510758 0.0306747 0.969325 
482 1.09951e-18 8.22502e-21 9.25387e-21 7.1833e-26 4.54652e-08 0.0785495 0.0308347 0.969165 
483 1.02936e-18 1.19163e-20 1.44317e-20 7.17986e-26 4.89739e-08 0.115541 0.0316848 0.968315 
484 9.29851e-19 1.65799e-20 2.17664e-20 7.17762e-26 5.5016e-08 0.16803 0.0322403 0.96776 
491 1.14463e-18 6.27364e-21 5.414e-21 7.18384e-26 4.3596e-08 0.0554711 0.0307007 0.969299 
492 1.09142e-18 8.6952e-21 9.35247e-21 7.18322e-26 4.59737e-08 0.0836977 0.0308532 0.969147 
493 1.01167e-18 1.23261e-20 1.48061e-20 7.18025e-26 4.9999e-08 0.125397 0.0315903 0.96841 
494 9.02478e-19 1.78628e-20 2.34121e-20 7.183e-26 5.70807e-08 0.184716 0.0309068 0.969093 
501 1.13931e-18 6.14778e-21 5.72096e-21 7.18138e-26 4.3709e-08 0.0576096 0.03131 0.96869 
502 1.07703e-18 9.39296e-21 1.00712e-20 7.17714e-26 4.65448e-08 0.0904681 0.0323598 0.96764 
503 1.00015e-18 1.29597e-20 1.58669e-20 7.17721e-26 5.05483e-08 0.131753 0.0323428 0.967657 
504 8.8728e-19 1.85155e-20 2.42697e-20 7.17936e-26 5.80369e-08 0.193006 0.0318103 0.96819 
511 1.13607e-18 6.18797e-21 5.91623e-21 7.1849e-26 4.39947e-08 0.0605804 0.030437 0.969563 
512 1.07646e-18 9.02537e-21 1.06404e-20 7.18336e-26 4.67696e-08 0.09224 0.0308199 0.96918 
513 9.89006e-19 1.33964e-20 1.73405e-20 7.18157e-26 5.13782e-08 0.138657 0.0312627 0.968737 
514 8.70115e-19 1.97113e-20 2.51737e-20 7.17423e-26 5.92875e-08 0.202047 0.0330834 0.966917 
601 1.17134e-18 4.90669e-21 3.9093e-21 7.18272e-26 4.23094e-08 0.0394927 0.0309763 0.969024 
602 1.13222e-18 7.05227e-21 7.06623e-21 7.18342e-26 4.39918e-08 0.0606956 0.030805 0.969195 
603 1.08318e-18 9.5378e-21 1.05524e-20 7.18473e-26 4.62905e-08 0.0869348 0.0304797 0.96952 
604 1.01259e-18 1.22915e-20 1.61901e-20 7.18368e-26 5.01679e-08 0.124142 0.030739 0.969261 
611 1.1595e-18 5.51763e-21 4.79655e-21 7.18895e-26 4.31153e-08 0.0468021 0.0294353 0.970565 
612 1.11553e-18 7.7654e-21 8.08737e-21 7.1875e-26 4.50706e-08 0.069885 0.0297945 0.970205 
613 1.05355e-18 1.08178e-20 1.30117e-20 7.18656e-26 4.80746e-08 0.102775 0.030027 0.969973 
614 9.6552e-19 1.51651e-20 2.02834e-20 7.18414e-26 5.28932e-08 0.148311 0.030626 0.969374 
621 1.1502e-18 5.841e-21 5.42683e-21 7.18629e-26 4.33494e-08 0.0519567 0.0300931 0.969907 
622 1.09877e-18 8.12477e-21 9.63048e-21 7.1842e-26 4.56918e-08 0.0792686 0.0306104 0.96939 
623 1.02938e-18 1.22275e-20 1.48214e-20 7.18246e-26 4.93347e-08 0.115912 0.0310425 0.968958 
624 9.34416e-19 1.64939e-20 2.18129e-20 7.18201e-26 5.49668e-08 0.165868 0.0311526 0.968847 
631 1.14129e-18 6.35352e-21 5.67066e-21 7.18503e-26 4.37321e-08 0.0569266 0.0304045 0.969595 
632 1.08507e-18 9.01958e-21 9.74395e-21 7.18334e-26 4.63509e-08 0.0864199 0.0308249 0.969175 
633 1.0065e-18 1.32484e-20 1.63318e-20 7.18196e-26 5.03835e-08 0.128093 0.0311645 0.968836 
634 9.01707e-19 1.86982e-20 2.40219e-20 7.18246e-26 5.71248e-08 0.18334 0.0310423 0.968958 
641 1.13637e-18 6.66668e-21 5.98396e-21 7.18335e-26 4.39141e-08 0.0597282 0.0308222 0.969178 
642 1.0776e-18 9.06095e-21 1.05806e-20 7.18338e-26 4.66952e-08 0.0909618 0.0308143 0.969186 
643 9.89201e-19 1.3705e-20 1.68585e-20 7.18062e-26 5.14725e-08 0.137813 0.0314985 0.968502 
644 8.7478e-19 1.9043e-20 2.60615e-20 7.17989e-26 5.92282e-08 0.199296 0.0316781 0.968322 
651 1.13071e-18 6.34108e-21 6.20721e-21 7.18486e-26 4.40681e-08 0.0630879 0.0304485 0.969552 
652 1.06554e-18 9.86902e-21 1.14727e-20 7.182e-26 4.70435e-08 0.0970498 0.0311546 0.968845 
653 9.75316e-19 1.40463e-20 1.82139e-20 7.17933e-26 5.2151e-08 0.145222 0.0318172 0.968183 
654 8.53643e-19 1.97649e-20 2.70914e-20 7.17873e-26 6.07414e-08 0.210717 0.0319649 0.968035 
661 1.12561e-18 6.65513e-21 6.50542e-21 7.18374e-26 4.4244e-08 0.065233 0.0307253 0.969275 
662 1.06098e-18 1.04692e-20 1.09929e-20 7.18236e-26 4.73471e-08 0.0997815 0.0310673 0.968933 
663 9.70006e-19 1.45828e-20 1.80474e-20 7.18295e-26 5.26246e-08 0.149224 0.0309212 0.969079 
664 8.41501e-19 2.06183e-20 2.71986e-20 7.18041e-26 6.17552e-08 0.217638 0.0315504 0.96845 
751 1.16473e-18 5.10483e-21 4.48424e-21 7.18567e-26 4.27273e-08 0.0434173 0.0302477 0.969752 
752 1.12367e-18 7.33218e-21 7.51598e-21 7.18453e-26 4.45846e-08 0.0651559 0.0305285 0.969472 
753 1.06842e-18 1.05122e-20 1.20014e-20 7.18238e-26 4.71721e-08 0.0941351 0.0310605 0.96894 
754 9.94899e-19 1.42486e-20 1.8437e-20 7.17592e-26 5.10674e-08 0.132187 0.0326635 0.967336 
761 1.15113e-18 5.71253e-21 5.48866e-21 7.18755e-26 4.32704e-08 0.0509244 0.0297808 0.970219 
762 1.10338e-18 8.29928e-21 9.31867e-21 7.18522e-26 4.53743e-08 0.0758202 0.0303592 0.969641 
763 1.03578e-18 1.22049e-20 1.44118e-20 7.18385e-26 4.87443e-08 0.110739 0.030697 0.969303 
764 9.48865e-19 1.61864e-20 2.09519e-20 7.18116e-26 5.41223e-08 0.157032 0.0313633 0.968637 
771 1.14585e-18 6.08356e-21 5.68525e-21 7.18506e-26 4.35557e-08 0.0536764 0.0303982 0.969602 
772 1.08966e-18 9.038e-21 9.71082e-21 7.18588e-26 4.61262e-08 0.0834933 0.0301947 0.969805 
773 1.01541e-18 1.28067e-20 1.59598e-20 7.18349e-26 5.00924e-08 0.122887 0.030787 0.969213 
774 9.15461e-19 1.75608e-20 2.34694e-20 7.18161e-26 5.64204e-08 0.176203 0.0312514 0.968749 
781 1.13244e-18 6.47551e-21 6.202e-21 7.18402e-26 4.41391e-08 0.0615682 0.0306565 0.969344 
782 1.07182e-18 9.49532e-21 1.03686e-20 7.18289e-26 4.70917e-08 0.0936339 0.030936 0.969064 
783 9.89324e-19 1.35795e-20 1.68593e-20 7.18376e-26 5.14481e-08 0.136578 0.0307193 0.969281 
784 8.73612e-19 1.97415e-20 2.59505e-20 7.18133e-26 5.9289e-08 0.197625 0.0313205 0.968679 
791 1.12823e-18 6.52541e-21 6.5215e-21 7.18309e-26 4.4321e-08 0.0645384 0.0308854 0.969115 
792 1.06214e-18 1.01963e-20 1.20419e-20 7.18499e-26 4.75501e-08 0.0994091 0.0304144 0.969586 
793 9.73202e-19 1.44428e-20 1.8477e-20 7.18157e-26 5.25258e-08 0.146154 0.031261 0.968739 
794 8.47639e-19 2.02167e-20 2.74167e-20 7.18079e-26 6.13511e-08 0.2125 0.0314564 0.968544 
801 1.12039e-18 7.09377e-21 7.07489e-21 7.18165e-26 4.46121e-08 0.0681267 0.0312411 0.968759 
802 1.05389e-18 1.04059e-20 1.23409e-20 7.1819e-26 4.79513e-08 0.103613 0.0311792 0.968821 
803 9.60417e-19 1.48866e-20 1.9289e-20 7.18063e-26 5.31334e-08 0.152896 0.031495 0.968505 
804 8.28431e-19 2.10601e-20 2.94483e-20 7.1775e-26 6.28146e-08 0.222122 0.0322708 0.967729 
805 6.61604e-19 2.82561e-20 4.01856e-20 7.17836e-26 8.16681e-08 0.313885 0.032057 0.967943 
811 1.11971e-18 7.00061e-21 7.26687e-21 7.18566e-26 4.4807e-08 0.0695795 0.0302495 0.96975 
812 1.04925e-18 1.07713e-20 1.19841e-20 7.18345e-26 4.83212e-08 0.106732 0.030797 0.969203 
813 9.51333e-19 1.50239e-20 1.91971e-20 7.17833e-26 5.385e-08 0.15822 0.0320664 0.967934 
814 8.15561e-19 2.14461e-20 3.01276e-20 7.17904e-26 6.42112e-08 0.2301 0.0318903 0.96811 
815 6.41855e-19 2.86799e-20 4.14233e-20 7.18215e-26 8.44053e-08 0.324906 0.0311183 0.968882 
901 1.16132e-18 5.42818e-21 4.46704e-21 7.18581e-26 4.28956e-08 0.0450819 0.0302133 0.969787 
902 1.11748e-18 8.09126e-21 8.04379e-21 7.18382e-26 4.47854e-08 0.0682445 0.0307049 0.969295 
903 1.05907e-18 1.07444e-20 1.30336e-20 7.18411e-26 4.75732e-08 0.098581 0.0306333 0.969367 
904 9.81644e-19 1.47849e-20 1.94043e-20 7.1831e-26 5.20481e-08 0.139496 0.0308825 0.969117 
905 8.73196e-19 2.01713e-20 2.7637e-20 7.18253e-26 5.97175e-08 0.195095 0.0310254 0.968975 
911 1.15104e-18 5.80755e-21 5.3224e-21 7.18238e-26 4.32358e-08 0.0508099 0.0310621 0.968938 
912 1.09704e-18 8.68207e-21 9.39467e-21 7.18135e-26 4.58042e-08 0.0793403 0.0313155 0.968684 
913 1.02834e-18 1.21033e-20 1.51384e-20 7.17886e-26 4.93146e-08 0.115217 0.0319336 0.968066 
914 9.34434e-19 1.69233e-20 2.30895e-20 7.17985e-26 5.50088e-08 0.163845 0.0316889 0.968311 
915 8.06205e-19 2.32011e-20 3.29197e-20 7.18206e-26 6.52364e-08 0.230202 0.0311397 0.96886 
921 1.13498e-18 6.16479e-21 6.80997e-21 7.18099e-26 4.39962e-08 0.0592931 0.0314058 0.968594 
922 1.07655e-18 9.508e-21 1.0987e-20 7.17629e-26 4.68741e-08 0.0903659 0.032572 0.967428 
923 1.00087e-18 1.34083e-20 1.68392e-20 7.18439e-26 5.09936e-08 0.13085 0.0305634 0.969437 
924 8.95556e-19 1.89632e-20 2.55022e-20 7.18271e-26 5.79332e-08 0.185746 0.0309799 0.96902 
925 7.55978e-19 2.52809e-20 3.62026e-20 7.18155e-26 7.05696e-08 0.259511 0.0312681 0.968732 
931 1.12638e-18 6.78922e-21 6.92445e-21 7.18512e-26 4.43736e-08 0.064456 0.030383 0.969617 
932 1.06708e-18 9.91717e-21 1.17828e-20 7.18263e-26 4.725e-08 0.0959058 0.0309998 0.969 
933 9.76701e-19 1.44982e-20 1.87476e-20 7.18092e-26 5.23186e-08 0.143758 0.031424 0.968576 
934 8.6576e-19 2.01678e-20 2.73771e-20 7.18099e-26 6.03482e-08 0.202951 0.0314056 0.968594 
935 7.11282e-19 2.75219e-20 3.89303e-20 7.18165e-26 7.61438e-08 0.286474 0.0312431 0.968757 
941 1.12299e-18 6.6622e-21 7.11197e-21 7.1804e-26 4.43605e-08 0.0661275 0.0315516 0.968448 
942 1.05364e-18 1.0816e-20 1.23209e-20 7.18031e-26 4.78461e-08 0.10288 0.0315756 0.968424 
943 9.60795e-19 1.52254e-20 1.97679e-20 7.18032e-26 5.32076e-08 0.151684 0.0315722 0.968428 
944 8.3631e-19 2.09989e-20 2.90366e-20 7.17886e-26 6.2425e-08 0.216975 0.0319343 0.968066 
945 6.73784e-19 2.85805e-20 4.06265e-20 7.17893e-26 8.04348e-08 0.30506 0.0319152 0.968085 
951 1.11746e-18 7.09677e-21 7.50519e-21 7.17912e-26 4.46556e-08 0.0696438 0.0318693 0.968131 
952 1.04786e-18 1.07487e-20 1.32e-20 7.17656e-26 4.80424e-08 0.106428 0.0325033 0.967497 
953 9.49818e-19 1.60494e-20 2.03394e-20 7.17861e-26 5.38565e-08 0.157809 0.031995 0.968005 
954 8.12937e-19 2.22045e-20 3.01955e-20 7.1775e-26 6.43562e-08 0.229804 0.0322717 0.967728 
955 6.4289e-19 3.00083e-20 4.22842e-20 7.17995e-26 8.47276e-08 0.322408 0.0316647 0.968335 
961 1.11198e-18 7.2383e-21 7.54137e-21 7.18231e-26 4.49628e-08 0.0730096 0.0310799 0.96892 
962 1.04474e-18 1.0904e-20 1.33225e-20 7.18161e-26 4.8324e-08 0.108351 0.031253 0.968747 
963 9.41667e-19 1.63058e-20 2.09747e-20 7.18132e-26 5.4556e-08 0.163365 0.0313231 0.968677 
964 8.02247e-19 2.22415e-20 3.08733e-20 7.18038e-26 6.5489e-08 0.237198 0.0315563 0.968444 
965 6.21818e-19 2.99113e-20 4.38796e-20 7.17802e-26 8.85882e-08 0.336956 0.0321432 0.967857 
7 9.4725e-19 1.5392e-20 2.06484e-20 7.18386e-26 5.48613e-08 0.154192 0.0306957 0.969304 
8 8.84653e-19 1.93506e-20 2.64649e-20 7.1875e-26 5.98648e-08 0.181026 0.0297931 0.970207 
17 8.75232e-19 1.80972e-20 2.51341e-20 7.18557e-26 6.02272e-08 0.193632 0.0302722 0.969728 
18 7.91691e-19 2.25323e-20 3.21948e-20 7.1886e-26 6.87049e-08 0.232109 0.0295227 0.970477 
27 8.04298e-19 2.12094e-20 2.99233e-20 7.18368e-26 6.62846e-08 0.232462 0.0307385 0.969261 
28 6.96472e-19 2.63358e-20 3.72685e-20 7.18996e-26 7.94726e-08 0.282969 0.0291865 0.970814 
36 8.68099e-19 1.77919e-20 2.41466e-20 7.18569e-26 6.00882e-08 0.202808 0.0302418 0.969758 
37 7.40347e-19 2.34975e-20 3.34813e-20 7.18883e-26 7.28137e-08 0.269124 0.0294646 0.970535 
38 6.15209e-19 2.79679e-20 4.06921e-20 7.19188e-26 9.21037e-08 0.332232 0.028712 0.971288 
46 8.2921e-19 1.89281e-20 2.63515e-20 7.18582e-26 6.32729e-08 0.224144 0.0302086 0.969791 
47 6.94566e-19 2.43751e-20 3.52821e-20 7.18832e-26 7.81642e-08 0.294807 0.0295908 0.970409 
48 5.44806e-19 2.92463e-20 4.3139e-20 7.19236e-26 1.05869e-07 0.374376 0.0285932 0.971407 
56 8.05202e-19 1.97597e-20 2.80086e-20 7.18157e-26 6.56247e-08 0.238647 0.0312612 0.968739 
57 6.52931e-19 2.55116e-20 3.71621e-20 7.18714e-26 8.43164e-08 0.320268 0.0298831 0.970117 
58 4.9154e-19 3.07084e-20 4.47899e-20 7.1942e-26 1.19528e-07 0.407218 0.0281386 0.971861 
66 7.8636e-19 2.05441e-20 2.80632e-20 7.18193e-26 6.71341e-08 0.249378 0.0311718 0.968828 
67 6.2868e-19 2.73172e-20 3.79539e-20 7.18452e-26 8.78523e-08 0.334599 0.0305304 0.96947 
68 4.58397e-19 3.14203e-20 4.62541e-20 7.19089e-26 1.29249e-07 0.428444 0.0289551 0.971045 
156 9.54651e-19 1.55726e-20 2.07393e-20 7.18442e-26 5.35959e-08 0.151746 0.0305551 0.969445 
157 8.6249e-19 2.01593e-20 2.81441e-20 7.18606e-26 6.03154e-08 0.194294 0.0301505 0.96985 
158 7.70688e-19 2.48231e-20 3.55331e-20 7.19213e-26 6.96554e-08 0.23466 0.0286491 0.971351 
166 8.82661e-19 1.89552e-20 2.53358e-20 7.18412e-26 5.85743e-08 0.189645 0.0306293 0.969371 
167 7.71884e-19 2.41086e-20 3.44158e-20 7.1852e-26 6.89293e-08 0.24449 0.030364 0.969636 
168 6.53957e-19 2.93696e-20 4.28906e-20 7.19319e-26 8.47214e-08 0.298344 0.0283869 0.971613 
176 8.21233e-19 2.1274e-20 2.93681e-20 7.18409e-26 6.33521e-08 0.222579 0.0306384 0.969362 
177 6.8009e-19 2.71467e-20 3.82848e-20 7.18653e-26 7.89007e-08 0.293252 0.030033 0.969967 
178 5.40389e-19 3.23935e-20 4.72545e-20 7.19426e-26 1.05185e-07 0.363336 0.0281231 0.971877 
186 7.73208e-19 2.29315e-20 3.09704e-20 7.18428e-26 6.81351e-08 0.25187 0.0305916 0.969408 
187 6.15645e-19 2.94589e-20 4.16052e-20 7.18989e-26 8.89855e-08 0.334558 0.029204 0.970796 
188 4.51502e-19 3.4746e-20 4.99348e-20 7.19359e-26 1.29668e-07 0.421802 0.0282888 0.971711 
196 7.31134e-19 2.49809e-20 3.38873e-20 7.18185e-26 7.22178e-08 0.273845 0.0311916 0.968808 
197 5.60434e-19 3.12746e-20 4.45294e-20 7.18875e-26 9.86242e-08 0.365293 0.0294844 0.970516 
198 3.88547e-19 3.54154e-20 5.19706e-20 7.19664e-26 1.54488e-07 0.464257 0.0275361 0.972464 
206 7.04999e-19 2.51953e-20 3.59658e-20 7.18332e-26 7.52948e-08 0.289062 0.0308279 0.969172 
207 5.28428e-19 3.11269e-20 4.52859e-20 7.18847e-26 1.05716e-07 0.386166 0.029553 0.970447 
208 3.47733e-19 3.60884e-20 5.32278e-20 7.19673e-26 1.77097e-07 0.497188 0.0275142 0.972486 
216 6.84019e-19 2.60692e-20 3.65662e-20 7.17965e-26 7.78983e-08 0.301586 0.0317368 0.968263 
217 5.06726e-19 3.20416e-20 4.63797e-20 7.18555e-26 1.11171e-07 0.400972 0.0302765 0.969724 
218 3.23064e-19 3.61489e-20 5.41092e-20 7.19516e-26 1.92552e-07 0.515001 0.0279023 0.972098 
306 8.95003e-19 1.78327e-20 2.50195e-20 7.18715e-26 5.75353e-08 0.18224 0.0298815 0.970119 
307 7.76819e-19 2.36214e-20 3.37023e-20 7.19022e-26 6.79766e-08 0.238132 0.0291221 0.970878 
308 6.67655e-19 2.92289e-20 4.28385e-20 7.19202e-26 8.21652e-08 0.28473 0.0286771 0.971323 
316 8.10649e-19 2.22084e-20 3.06516e-20 7.18263e-26 6.44756e-08 0.227031 0.0310007 0.968999 
317 6.74062e-19 2.81657e-20 3.98396e-20 7.18409e-26 8.04716e-08 0.296277 0.0306373 0.969363 
318 5.33212e-19 3.3394e-20 4.88239e-20 7.19502e-26 1.07152e-07 0.363565 0.0279357 0.972064 
326 7.49657e-19 2.50064e-20 3.45323e-20 7.18607e-26 7.07217e-08 0.262987 0.030149 0.969851 
327 5.85889e-19 3.14796e-20 4.55973e-20 7.1877e-26 9.44436e-08 0.348679 0.0297457 0.970254 
328 4.22299e-19 3.67843e-20 5.33034e-20 7.19792e-26 1.4055e-07 0.435828 0.0272204 0.97278 
336 6.95055e-19 2.74734e-20 3.75309e-20 7.1804e-26 7.66884e-08 0.293094 0.031553 0.968447 
337 5.215e-19 3.35358e-20 4.84427e-20 7.18712e-26 1.08094e-07 0.389912 0.0298881 0.970112 
338 3.47387e-19 3.84338e-20 5.59644e-20 7.19339e-26 1.78714e-07 0.497601 0.0283394 0.971661 
346 6.52106e-19 2.84687e-20 4.00498e-20 7.1823e-26 8.22734e-08 0.317488 0.0310815 0.968918 
347 4.73086e-19 3.50896e-20 4.98578e-20 7.19124e-26 1.21366e-07 0.42247 0.0288684 0.971132 
348 2.96485e-19 3.85224e-20 5.6307e-20 7.19906e-26 2.16281e-07 0.539787 0.0269398 0.97306 
356 6.21722e-19 2.91765e-20 4.19381e-20 7.18163e-26 8.69834e-08 0.336771 0.0312462 0.968754 
357 4.38378e-19 3.56974e-20 5.164e-20 7.18589e-26 1.32039e-07 0.443717 0.0301916 0.969808 
358 2.64763e-19 3.85726e-20 5.73553e-20 7.20176e-26 2.48863e-07 0.569902 0.0262741 0.973726 
366 5.99575e-19 3.01622e-20 4.28927e-20 7.1814e-26 9.03317e-08 0.348766 0.0313041 0.968696 
367 4.18539e-19 3.64956e-20 5.26186e-20 7.18954e-26 1.39639e-07 0.458294 0.0292896 0.97071 
368 2.45044e-19 3.92251e-20 5.76288e-20 7.19894e-26 2.74079e-07 0.590784 0.0269697 0.97303 
456 8.39031e-19 2.17703e-20 2.90026e-20 7.18632e-26 6.22277e-08 0.212289 0.0300866 0.969913 
457 7.08311e-19 2.70488e-20 3.95527e-20 7.18953e-26 7.61185e-08 0.275873 0.0292933 0.970707 
458 5.73183e-19 3.21521e-20 4.80188e-20 7.19583e-26 9.84375e-08 0.334977 0.0277367 0.972263 
466 7.53331e-19 2.47756e-20 3.50322e-20 7.18453e-26 7.06635e-08 0.259672 0.0305285 0.969471 
467 5.96532e-19 3.16413e-20 4.60633e-20 7.1897e-26 9.29722e-08 0.339977 0.0292493 0.970751 
468 4.42397e-19 3.65825e-20 5.47094e-20 7.19515e-26 1.34686e-07 0.420861 0.0279045 0.972095 
476 6.84892e-19 2.83531e-20 3.9655e-20 7.18536e-26 7.86081e-08 0.29813 0.0303241 0.969676 
477 5.12851e-19 3.42883e-20 5.01824e-20 7.19125e-26 1.1138e-07 0.39427 0.0288664 0.971134 
478 3.44801e-19 3.92794e-20 5.73355e-20 7.20101e-26 1.8311e-07 0.499475 0.0264583 0.973542 
486 6.31514e-19 2.94647e-20 4.26549e-20 7.18055e-26 8.61789e-08 0.330792 0.0315137 0.968486 
487 4.52486e-19 3.61439e-20 5.30052e-20 7.18926e-26 1.2921e-07 0.436598 0.029359 0.970641 
488 2.81467e-19 4.01771e-20 5.85996e-20 7.20168e-26 2.35609e-07 0.559037 0.0262926 0.973707 
496 5.91845e-19 3.1221e-20 4.44699e-20 7.18002e-26 9.2966e-08 0.355345 0.0316469 0.968353 
497 4.06829e-19 3.77339e-20 5.46642e-20 7.1896e-26 1.46029e-07 0.467332 0.0292756 0.970724 
498 2.40287e-19 4.03254e-20 5.90177e-20 7.20355e-26 2.89135e-07 0.607498 0.025832 0.974168 
506 5.59162e-19 3.2302e-20 4.63521e-20 7.18256e-26 9.92305e-08 0.375391 0.0310162 0.968984 
507 3.74751e-19 3.83694e-20 5.5919e-20 7.18695e-26 1.61009e-07 0.490721 0.0299292 0.970071 
508 2.07819e-19 3.96448e-20 5.86237e-20 7.20435e-26 3.4452e-07 0.639654 0.0256351 0.974365 
516 5.40216e-19 3.26343e-20 4.70134e-20 7.18441e-26 1.0309e-07 0.386963 0.0305594 0.969441 
517 3.53278e-19 3.85014e-20 5.63943e-20 7.19237e-26 1.73538e-07 0.509131 0.0285892 0.971411 
518 1.87559e-19 3.88264e-20 5.73332e-20 7.20673e-26 3.90824e-07 0.663362 0.0250491 0.974951 
606 7.9412e-19 2.32697e-20 3.34069e-20 7.18213e-26 6.63565e-08 0.234812 0.031123 0.968877 
607 6.49342e-19 2.98397e-20 4.28796e-20 7.18667e-26 8.44857e-08 0.30684 0.0299991 0.970001 
608 5.04883e-19 3.49828e-20 5.21207e-20 7.19718e-26 1.15439e-07 0.374509 0.0274029 0.972597 
616 7.08205e-19 2.73442e-20 3.86469e-20 7.18164e-26 7.58444e-08 0.283178 0.0312455 0.968755 
617 5.46194e-19 3.40831e-20 4.8707e-20 7.18519e-26 1.03867e-07 0.369896 0.0303658 0.969634 
618 3.80986e-19 3.86811e-20 5.6721e-20 7.1974e-26 1.63746e-07 0.466502 0.0273492 0.972651 
626 6.3836e-19 2.93509e-20 4.28016e-20 7.18333e-26 8.55547e-08 0.324832 0.0308258 0.969174 
627 4.64672e-19 3.69664e-20 5.3079e-20 7.18932e-26 1.25807e-07 0.424148 0.0293433 0.970657 
628 2.96348e-19 4.06039e-20 5.96596e-20 7.19954e-26 2.2345e-07 0.541498 0.026822 0.973178 
636 5.8562e-19 3.15195e-20 4.60173e-20 7.18515e-26 9.46663e-08 0.357382 0.0303762 0.969624 
637 4.04061e-19 3.82767e-20 5.64808e-20 7.1893e-26 1.48669e-07 0.467344 0.0293494 0.970651 
638 2.40477e-19 4.12967e-20 6.024e-20 7.20373e-26 2.92954e-07 0.605648 0.0257875 0.974212 
646 5.44386e-19 3.30903e-20 4.84149e-20 7.18263e-26 1.02924e-07 0.38228 0.030999 0.969001 
647 3.60869e-19 3.96541e-20 5.80716e-20 7.19036e-26 1.71749e-07 0.504478 0.0290876 0.970912 
648 1.97553e-19 4.04776e-20 5.88846e-20 7.20743e-26 3.7752e-07 0.661997 0.0248772 0.975123 
656 5.0955e-19 3.52248e-20 5.00462e-20 7.18669e-26 1.10901e-07 0.403631 0.0299943 0.970006 
657 3.24899e-19 4.04525e-20 5.91264e-20 7.19327e-26 1.93606e-07 0.529491 0.0283679 0.971632 
658 1.61453e-19 3.81118e-20 5.50252e-20 7.20778e-26 4.78598e-07 0.700073 0.0247926 0.975207 
666 4.87908e-19 3.50676e-20 5.05094e-20 7.185e-26 1.16452e-07 0.417078 0.0304121 0.969588 
667 3.03348e-19 3.96055e-20 5.86349e-20 7.19177e-26 2.10432e-07 0.548221 0.0287394 0.971261 
756 7.58449e-19 2.53344e-20 3.56659e-20 7.18275e-26 6.988e-08 0.252212 0.0309697 0.96903 
757 6.12693e-19 3.15749e-20 4.56971e-20 7.19373e-26 9.1106e-08 0.326798 0.028255 0.971745 
758 4.57354e-19 3.73688e-20 5.46921e-20 7.19895e-26 1.30882e-07 0.401595 0.0269668 0.973033 
766 6.7625e-19 2.85338e-20 4.12413e-20 7.18236e-26 8.07289e-08 0.301206 0.0310665 0.968933 
767 5.09703e-19 3.58318e-20 5.21126e-20 7.18992e-26 1.14138e-07 0.393281 0.0291947 0.970805 
768 3.42207e-19 4.01332e-20 5.91059e-20 7.19911e-26 1.89097e-07 0.495673 0.0269261 0.973074 
776 6.08103e-19 3.1619e-20 4.50173e-20 7.18082e-26 9.13129e-08 0.342035 0.0314474 0.968553 
777 4.32472e-19 3.84724e-20 5.66607e-20 7.18949e-26 1.39011e-07 0.445614 0.029302 0.970698 
778 2.69329e-19 4.17362e-20 6.09192e-20 7.20192e-26 2.56604e-07 0.56878 0.0262331 0.973767 
786 5.55295e-19 3.37439e-20 4.83381e-20 7.1852e-26 1.01311e-07 0.373684 0.0303638 0.969636 
787 3.76472e-19 3.9743e-20 5.84955e-20 7.19263e-26 1.65427e-07 0.490569 0.0285259 0.971474 
788 2.13968e-19 4.08439e-20 5.96501e-20 7.20442e-26 3.45464e-07 0.636432 0.0256179 0.974382 
796 5.08086e-19 3.50135e-20 5.05541e-20 7.18742e-26 1.1214e-07 0.401871 0.029814 0.970186 
797 3.28768e-19 4.02675e-20 5.91942e-20 7.19475e-26 1.93979e-07 0.525349 0.0280018 0.971998 
798 1.65571e-19 3.81724e-20 5.58731e-20 7.2098e-26 4.72111e-07 0.693568 0.0242948 0.975705 
806 4.73659e-19 3.54027e-20 5.2031e-20 7.18539e-26 1.21988e-07 0.424982 0.0303152 0.969685 
807 2.88547e-19 3.97412e-20 5.88409e-20 7.19628e-26 2.26789e-07 0.558368 0.0276239 0.972376 