ITEM: TIMESTEP
12000
ITEM: NUMBER OF SURFS
20883
ITEM: BOX BOUNDS oo ro oo
-2.505 0.895
0 2.5
-2.5 2.5
ITEM: SURFS id f_3[1] f_3[2] f_3[3] f_3[4] f_3[5] f_3[6] 
1 1.12227 2766.67 0.0355 0 0.0005 0.035 
9 1.47842 3873.74 0.016 0 0.001 0.015 
17 1.25752 4045.89 0.0025 0 0.0005 0.002 
25 0 0 0 0 0 0 
33 0 0 0 0 0 0 
41 0 0 0 0 0 0 
49 0 0 0 0 0 0 
57 0 0 0 0 0 0 
65 0 0 0 0 0 0 
73 0 0 0 0 0 0 
81 0 0 0 0 0 0 
89 0 0 0 0 0 0 
97 0 0 0 0 0 0 
105 0 0 0 0 0 0 
113 3.81637 10878.9 0.0015 0 0.0005 0.001 
121 0 0 0 0 0 0 
129 0 0 0 0 0 0 
137 0 0 0 0 0 0 
145 0 0 0 0 0 0 
153 2.67898 5569.95 0.0015 0 0 0.0015 
161 0.91999 2165.16 0.0025 0 0 0.0025 
169 0.993981 1971.21 0.007 0 0 0.007 
177 1.96324 4329.38 0.0415 0 0.0015 0.04 
185 0 0 0 0 0 0 
193 1.12471 2944.45 4.483 0 0.168 4.315 
201 1.13736 3055.09 4.0745 0 0.179 3.8955 
209 1.15149 3187.65 3.463 0 0.1435 3.3195 
217 1.37982 3680.1 3.1295 0 0.127 3.0025 
225 1.62162 4102.95 2.792 0 0.101 2.691 
233 1.6726 4071.3 4.089 0 0.1465 3.9425 
241 1.73144 4034.51 5.313 0 0.2 5.113 
249 1.73593 4018.81 6.2835 0 0.2235 6.06 
257 1.0416 2667.34 4.283 0 0.1655 4.1175 
265 1.08123 2859.99 4.009 0 0.147 3.862 
273 1.07838 2950.25 3.2775 0 0.1425 3.135 
281 1.25323 3302.36 2.932 0 0.103 2.829 
289 1.4252 3615.27 2.592 0 0.1015 2.4905 
297 1.48774 3622.21 3.721 0 0.1255 3.5955 
305 1.56367 3678.85 4.968 0 0.178 4.79 
313 1.5943 3667.85 5.9375 0 0.2155 5.722 
321 1.02969 2677.67 4.181 0 0.1555 4.0255 
329 0.993696 2622.96 3.7225 0 0.1355 3.587 
337 1.0212 2786.92 3.108 0 0.126 2.982 
345 1.18245 3151.52 2.809 0 0.1075 2.7015 
353 1.31524 3343.84 2.481 0 0.089 2.392 
361 1.43096 3502.51 3.5605 0 0.1405 3.42 
369 1.49095 3529.28 4.7655 0 0.1675 4.598 
377 1.48567 3402.66 5.6095 0 0.2075 5.402 
385 0.973688 2497.29 3.969 0 0.148 3.821 
393 0.983286 2627.57 3.6255 0 0.1525 3.473 
401 1.01038 2767.1 3.0595 0 0.119 2.9405 
409 1.13957 3038.91 2.6805 0 0.111 2.5695 
417 1.23495 3126.09 2.3465 0 0.085 2.2615 
425 1.40617 3477.14 3.5025 0 0.1485 3.354 
433 1.44523 3387.57 4.6765 0 0.1815 4.495 
441 1.45323 3322.99 5.4975 0 0.201 5.2965 
449 0.973473 2515.96 4.002 0 0.154 3.848 
457 0.943269 2472.23 3.475 0 0.145 3.33 
465 0.97588 2637.53 3.0045 0 0.116 2.8885 
473 1.13463 3059.34 2.611 0 0.1105 2.5005 
481 1.27091 3226.78 2.386 0 0.093 2.293 
489 1.31572 3247.81 3.286 0 0.112 3.174 
497 1.40841 3339.53 4.489 0 0.1895 4.2995 
505 1.42986 3318.03 5.27 0 0.197 5.073 
513 0.946066 2440.74 3.8715 0 0.149 3.7225 
521 0.958579 2479.1 3.5005 0 0.128 3.3725 
529 0.98425 2636.65 2.9915 0 0.11 2.8815 
537 1.09238 2964.61 2.4985 0 0.094 2.4045 
545 1.19912 3022.58 2.297 0 0.0935 2.2035 
553 1.33811 3311.26 3.3005 0 0.1265 3.174 
561 1.3955 3291.56 4.377 0 0.1515 4.2255 
569 1.39293 3219.44 5.12 0 0.1855 4.9345 
577 0.946661 2418.42 3.8025 0 0.12 3.6825 
585 0.950264 2481.2 3.431 0 0.144 3.287 
593 0.988174 2619.15 2.9435 0 0.105 2.8385 
601 1.09078 2928.04 2.5275 0 0.0965 2.431 
609 1.20096 3096.31 2.291 0 0.098 2.193 
617 1.28123 3128.64 3.2145 0 0.132 3.0825 
625 1.33688 3144.59 4.165 0 0.144 4.021 
633 1.39045 3196.02 5.083 0 0.184 4.899 
641 0.945 2414.12 3.8515 0 0.162 3.6895 
649 0.933001 2446.74 3.3 0 0.138 3.162 
657 0.98098 2616.32 2.906 0 0.1145 2.7915 
665 1.00281 2642.17 2.4165 0 0.0925 2.324 
673 1.14951 2943.56 2.244 0 0.0805 2.1635 
681 1.25047 3075.21 3.207 0 0.1105 3.0965 
689 1.36404 3232.82 4.187 0 0.159 4.028 
697 1.35076 3106.28 4.922 0 0.1685 4.7535 
705 0.968072 2511.17 3.776 0 0.131 3.645 
713 1.03117 2785.05 3.4295 0 0.139 3.2905 
721 1.00824 2694.1 2.9635 0 0.12 2.8435 
729 1.08413 2877.39 2.58 0 0.097 2.483 
737 1.23563 3183.72 2.3835 0 0.087 2.2965 
745 1.28417 3173.58 3.185 0 0.117 3.068 
753 1.33182 3145.86 4.0985 0 0.1415 3.957 
761 1.36518 3144.77 4.897 0 0.181 4.716 
769 0.976397 2522.6 3.8135 0 0.14 3.6735 
777 0.992915 2676.79 3.301 0 0.1195 3.1815 
785 0.985535 2570.61 2.9555 0 0.114 2.8415 
793 1.06841 2804.27 2.547 0 0.092 2.455 
801 1.18339 3047.95 2.318 0 0.09 2.228 
809 1.27377 3129.54 3.219 0 0.1055 3.1135 
817 1.33309 3200.92 4.082 0 0.1435 3.9385 
825 1.31336 3034.62 4.7005 0 0.177 4.5235 
833 0.953304 2439.11 3.702 0 0.135 3.567 
841 0.980399 2585.56 3.269 0 0.1375 3.1315 
849 1.01229 2663.42 3.005 0 0.1245 2.8805 
857 1.06831 2759.6 2.5785 0 0.0905 2.488 
865 1.14432 2925.24 2.305 0 0.0985 2.2065 
873 1.22399 3047.53 3.0555 0 0.129 2.9265 
881 1.35246 3255.6 4.0635 0 0.125 3.9385 
889 1.32068 3080.06 4.612 0 0.1885 4.4235 
897 0.96527 2504.38 3.6595 0 0.1405 3.519 
905 0.978644 2562.19 3.2625 0 0.122 3.1405 
913 1.00424 2591.97 2.939 0 0.12 2.819 
921 1.05309 2720.02 2.566 0 0.103 2.463 
929 1.12302 2817.2 2.2975 0 0.086 2.2115 
937 1.20204 2922.82 3.0705 0 0.1285 2.942 
945 1.30574 3106.25 3.8535 0 0.139 3.7145 
953 1.29556 2999.58 4.4685 0 0.1675 4.301 
961 0.989542 2558.24 3.6475 0 0.1365 3.511 
969 0.980335 2536.81 3.2395 0 0.1315 3.108 
977 0.987319 2548.41 2.841 0 0.116 2.725 
985 1.086 2788.03 2.601 0 0.1055 2.4955 
993 1.14788 2880.56 2.312 0 0.096 2.216 
1001 1.19204 2920.04 3 0 0.11 2.89 
1009 1.29191 3036.18 3.815 0 0.1395 3.6755 
1017 1.33389 3099.53 4.4795 0 0.166 4.3135 
1025 0.974302 2488.24 3.6045 0 0.129 3.4755 
1033 0.964831 2486.93 3.174 0 0.1165 3.0575 
1041 0.998795 2560.88 2.839 0 0.126 2.713 
1049 1.07619 2746.78 2.602 0 0.0885 2.5135 
1057 1.14468 2859.39 2.3945 0 0.088 2.3065 
1065 1.21131 2948.56 3.0665 0 0.1075 2.959 
1073 1.26808 3018.79 3.718 0 0.14 3.578 
1081 1.3173 3095.17 4.302 0 0.16 4.142 
1089 0.976934 2464.49 3.549 0 0.1185 3.4305 
1097 0.939085 2375.53 3.0295 0 0.1035 2.926 
1105 0.999529 2555.53 2.789 0 0.0885 2.7005 
1113 1.04189 2620.58 2.5735 0 0.088 2.4855 
1121 1.13169 2841.45 2.366 0 0.0775 2.2885 
1129 1.17166 2871.78 2.94 0 0.109 2.831 
1137 1.24089 2952.44 3.542 0 0.128 3.414 
1145 1.29516 3026.8 4.192 0 0.1535 4.0385 
1153 1.0076 2533.74 3.586 0 0.133 3.453 
1161 0.952555 2413.78 2.963 0 0.114 2.849 
1169 0.993258 2518.05 2.7715 0 0.106 2.6655 
1177 1.08334 2742.16 2.6365 0 0.0985 2.538 
1185 1.12946 2795.94 2.3975 0 0.107 2.2905 
1193 1.16751 2809.69 2.9395 0 0.108 2.8315 
1201 1.26703 2993.56 3.5635 0 0.1445 3.419 
1209 1.26218 2898.46 3.977 0 0.1515 3.8255 
1217 0.971261 2430.88 3.38 0 0.124 3.256 
1225 1.02655 2665.48 2.99 0 0.0965 2.8935 
1233 1.04133 2693.95 2.808 0 0.1175 2.6905 
1241 1.05864 2673.13 2.529 0 0.101 2.428 
1249 1.10971 2750.72 2.3735 0 0.101 2.2725 
1257 1.1976 2924.79 2.9445 0 0.1065 2.838 
1265 1.21385 2812.58 3.4295 0 0.115 3.3145 
1273 1.31965 3113.46 3.915 0 0.1235 3.7915 
1281 0.967884 2436.98 3.331 0 0.1185 3.2125 
1289 1.04565 2675.73 2.997 0 0.102 2.895 
1297 1.07832 2752.46 2.809 0 0.099 2.71 
1305 1.11178 2804.49 2.616 0 0.0985 2.5175 
1313 1.14513 2868.14 2.3915 0 0.091 2.3005 
1321 1.20881 2978.2 2.919 0 0.1195 2.7995 
1329 1.27451 3004.59 3.483 0 0.1295 3.3535 
1337 1.28062 3019.37 3.7545 0 0.1315 3.623 
1345 0.981512 2457.32 3.245 0 0.1125 3.1325 
1353 1.03042 2681.53 2.8485 0 0.1005 2.748 
1361 1.06665 2731.09 2.796 0 0.1055 2.6905 
1369 1.08813 2732.91 2.624 0 0.1075 2.5165 
1377 1.17486 2895.17 2.48 0 0.0975 2.3825 
1385 1.18781 2890.5 2.966 0 0.112 2.854 
1393 1.21494 2864.03 3.2685 0 0.128 3.1405 
1401 1.29156 2997.62 3.67 0 0.1275 3.5425 
1409 0.982271 2459.81 3.128 0 0.1155 3.0125 
1417 1.02415 2617.87 2.822 0 0.11 2.712 
1425 1.05257 2636.36 2.7435 0 0.0905 2.653 
1433 1.06165 2615.1 2.5905 0 0.0955 2.495 
1441 1.1294 2766.39 2.4735 0 0.091 2.3825 
1449 1.17376 2783.07 2.9125 0 0.107 2.8055 
1457 1.2593 2985.56 3.346 0 0.1305 3.2155 
1465 1.287 2975.57 3.5745 0 0.1235 3.451 
1473 0.985607 2504.31 3.0405 0 0.107 2.9335 
1481 1.03449 2613.73 2.7795 0 0.1095 2.67 
1489 1.01187 2503.47 2.6465 0 0.1125 2.534 
1497 1.07866 2661.02 2.571 0 0.0825 2.4885 
1505 1.12502 2715.86 2.477 0 0.086 2.391 
1513 1.14487 2736.06 2.8275 0 0.1 2.7275 
1521 1.17498 2776.4 3.0595 0 0.1185 2.941 
1529 1.23309 2866.25 3.364 0 0.121 3.243 
1537 0.976592 2442.38 2.948 0 0.1095 2.8385 
1545 1.02113 2598.82 2.622 0 0.0965 2.5255 
1553 1.06984 2666.51 2.628 0 0.089 2.539 
1561 1.09676 2696.7 2.643 0 0.0885 2.5545 
1569 1.16147 2826.16 2.535 0 0.0925 2.4425 
1577 1.15555 2775.22 2.8025 0 0.105 2.6975 
1585 1.21398 2908.7 2.993 0 0.113 2.88 
1593 1.27938 2957.77 3.326 0 0.1285 3.1975 
1601 0.946684 2370.12 2.7335 0 0.105 2.6285 
1609 0.983248 2464.75 2.496 0 0.091 2.405 
1617 1.03931 2578.61 2.6125 0 0.091 2.5215 
1625 1.06505 2609.35 2.576 0 0.093 2.483 
1633 1.13671 2734.55 2.57 0 0.0945 2.4755 
1641 1.13125 2707.71 2.763 0 0.1065 2.6565 
1649 1.18744 2798.92 2.9435 0 0.0945 2.849 
1657 1.20831 2816.29 3.102 0 0.102 3 
1665 0.922623 2255.35 2.6135 0 0.106 2.5075 
1673 1.03532 2566.3 2.5235 0 0.103 2.4205 
1681 1.01711 2505.7 2.5485 0 0.0955 2.453 
1689 1.05272 2595.7 2.51 0 0.0955 2.4145 
1697 1.10913 2736.5 2.483 0 0.092 2.391 
1705 1.15705 2806.99 2.7585 0 0.095 2.6635 
1713 1.19017 2813.1 2.9195 0 0.107 2.8125 
1721 1.24715 2892.77 3.046 0 0.111 2.935 
1729 0.97319 2415.23 2.517 0 0.0995 2.4175 
1737 1.00115 2547.34 2.3135 0 0.0885 2.225 
1745 1.04227 2552.13 2.5725 0 0.0935 2.479 
1753 1.02831 2484.05 2.5405 0 0.1045 2.436 
1761 1.07366 2578.35 2.493 0 0.0915 2.4015 
1769 1.15516 2735.6 2.819 0 0.102 2.717 
1777 1.18488 2756.79 2.833 0 0.1115 2.7215 
1785 1.20877 2845.09 2.8095 0 0.1045 2.705 
1793 1.00812 2542.01 2.3515 0 0.089 2.2625 
1801 1.03581 2560.17 2.2665 0 0.076 2.1905 
1809 1.07511 2648.03 2.5375 0 0.0935 2.444 
1817 1.1075 2707.74 2.6485 0 0.0995 2.549 
1825 1.22455 3029.81 2.723 0 0.0945 2.6285 
1833 1.20285 2919.04 2.836 0 0.112 2.724 
1841 1.25008 2995.06 2.904 0 0.102 2.802 
1849 1.23886 2945.43 2.6615 0 0.0975 2.564 
1857 1.02339 2571.06 2.2495 0 0.0855 2.164 
1865 1.04165 2597.99 2.175 0 0.072 2.103 
1873 1.06523 2611.75 2.4995 0 0.0895 2.41 
1881 1.12206 2765.9 2.6975 0 0.0995 2.598 
1889 1.15143 2801.79 2.6675 0 0.1015 2.566 
1897 1.19709 2891.51 2.8025 0 0.12 2.6825 
1905 1.24671 2963.67 2.868 0 0.1125 2.7555 
1913 1.25667 2974.95 2.605 0 0.094 2.511 
1921 1.0003 2479.79 2.0495 0 0.065 1.9845 
1929 1.01397 2526.02 2.0575 0 0.073 1.9845 
1937 1.09616 2728.32 2.461 0 0.0955 2.3655 
1945 1.10932 2712.38 2.6965 0 0.0905 2.606 
1953 1.15534 2792.3 2.779 0 0.0995 2.6795 
1961 1.16327 2749.94 2.8765 0 0.1025 2.774 
1969 1.22771 2924.78 2.7535 0 0.104 2.6495 
1977 1.24756 2922.85 2.447 0 0.094 2.353 
1985 0.990059 2464.46 1.8035 0 0.0685 1.735 
1993 1.02439 2525.98 2.042 0 0.062 1.98 
2001 1.04955 2595.89 2.4035 0 0.0965 2.307 
2009 1.11354 2756.09 2.7355 0 0.0905 2.645 
2017 1.12145 2684.46 2.7565 0 0.1005 2.656 
2025 1.15873 2779.51 2.8325 0 0.106 2.7265 
2033 1.19969 2850.29 2.7035 0 0.0995 2.604 
2041 1.25661 2984.84 2.349 0 0.0885 2.2605 
2049 0.995834 2461.61 1.5235 0 0.0575 1.466 
2057 0.984953 2415.8 1.9215 0 0.0885 1.833 
2065 1.10688 2765.07 2.489 0 0.095 2.394 
2073 1.07103 2575.74 2.695 0 0.096 2.599 
2081 1.11325 2723.03 2.7585 0 0.1095 2.649 
2089 1.13422 2653.8 2.87 0 0.096 2.774 
2097 1.17359 2740.12 2.688 0 0.0925 2.5955 
2105 1.19061 2780.65 2.156 0 0.076 2.08 
2113 0.992291 2446.98 1.1405 0 0.0525 1.088 
2121 1.03244 2529.49 1.964 0 0.0695 1.8945 
2129 1.06049 2614.76 2.5545 0 0.0875 2.467 
2137 1.07849 2625.59 2.8615 0 0.099 2.7625 
2145 1.08932 2613.5 2.894 0 0.105 2.789 
2153 1.12398 2679.42 2.9455 0 0.1115 2.834 
2161 1.16121 2771.49 2.649 0 0.106 2.543 
2169 1.23241 2900.71 2.158 0 0.0825 2.0755 
2177 1.03757 2654.63 0.639 0 0.018 0.621 
2185 1.00552 2480.76 2.132 0 0.0775 2.0545 
2193 1.05376 2571.08 2.8815 0 0.1095 2.772 
2201 1.01012 2429.36 3.0885 0 0.1205 2.968 
2209 1.08186 2588.07 3.313 0 0.1225 3.1905 
2217 1.11223 2630.96 3.241 0 0.108 3.133 
2225 1.15568 2736.81 3.046 0 0.115 2.931 
2233 1.16826 2792.3 2.3355 0 0.0775 2.258 
2241 0 0 0 0 0 0 
2249 0 0 0 0 0 0 
2257 0.00316906 8.55577 0.0015 0 0 0.0015 
2265 0.000502304 1.46477 0.0005 0 0 0.0005 
2273 0.0102356 28.5127 0.006 0 0.0005 0.0055 
2281 0.0101505 41.1114 0.0065 0 0.0005 0.006 
2289 0.0262525 98.8006 0.0115 0 0.0005 0.011 
2297 0.0269259 119.362 0.011 0 0.001 0.01 
2305 0.047436 243.676 0.019 0 0.0015 0.0175 
2313 0.10496 491.196 0.0405 0 0.0025 0.038 
2321 0.19297 920.771 0.063 0 0.0015 0.0615 
2329 0.260383 1236.55 0.0745 0 0.0035 0.071 
2337 0.362293 1473.16 0.1025 0 0.0025 0.1 
2345 0.579576 2110.95 0.15 0 0.006 0.144 
2353 0.721341 2322.61 0.1735 0 0.0065 0.167 
2361 0.847861 2582.65 0.214 0 0.0065 0.2075 
2369 0.870045 2472.79 0.2345 0 0.01 0.2245 
2377 0.955683 2613.45 0.4855 0 0.0225 0.463 
2385 0.992779 2660.84 0.8945 0 0.034 0.8605 
2393 1.04226 2754.11 1.6045 0 0.0615 1.543 
2401 1.09489 2923.01 2.5665 0 0.1055 2.461 
2409 1.04567 2727.48 3.489 0 0.1415 3.3475 
2417 1.09221 2774.03 4.4435 0 0.1855 4.258 
2425 1.12387 2945.49 4.689 0 0.198 4.491 
2433 0.00290986 6.16927 0.0005 0 0 0.0005 
2441 0 0 0 0 0 0 
2449 0.00349532 17.8491 0.002 0 0 0.002 
2457 0.00397446 18.665 0.0025 0 0 0.0025 
2465 0.00560224 21.2656 0.0035 0 0 0.0035 
2473 0.0175627 79.2821 0.01 0 0 0.01 
2481 0.0166593 60.6443 0.0075 0 0.001 0.0065 
2489 0.0303242 141.684 0.013 0 0.0015 0.0115 
2497 0.0483966 159.445 0.019 0 0.0005 0.0185 
2505 0.121138 610.79 0.047 0 0.002 0.045 
2513 0.198979 883.347 0.064 0 0.003 0.061 
2521 0.294432 1141.36 0.0885 0 0.003 0.0855 
2529 0.415667 1500.04 0.1165 0 0.006 0.1105 
2537 0.544709 1962.78 0.149 0 0.0035 0.1455 
2545 0.655696 1988.45 0.1735 0 0.0055 0.168 
2553 0.796114 2209.2 0.2125 0 0.0065 0.206 
2561 0.800372 2195.08 0.232 0 0.0085 0.2235 
2569 0.870193 2521.79 0.453 0 0.016 0.437 
2577 0.882993 2369.53 0.825 0 0.0205 0.8045 
2585 0.9156 2428.7 1.4495 0 0.0545 1.395 
2593 1.01748 2692.99 2.365 0 0.0865 2.2785 
2601 0.998761 2531.86 3.336 0 0.136 3.2 
2609 1.00441 2542.21 4.2015 0 0.1495 4.052 
2617 1.03593 2651.7 4.4485 0 0.169 4.2795 
2625 0.0016085 0.158138 0.0005 0 0 0.0005 
2633 0.000775991 1.90093 0.0005 0 0.0005 0 
2641 0.0016652 4.14078 0.001 0 0 0.001 
2649 0.00403391 13.9228 0.003 0 0.0005 0.0025 
2657 0.012696 48.6205 0.006 0 0 0.006 
2665 0.0174941 56.9929 0.009 0 0.001 0.008 
2673 0.012788 51.8444 0.0055 0 0 0.0055 
2681 0.0389169 149.728 0.0165 0 0.0015 0.015 
2689 0.0630123 276.994 0.028 0 0.002 0.026 
2697 0.104945 527.371 0.043 0 0.003 0.04 
2705 0.18916 906.325 0.065 0 0.0025 0.0625 
2713 0.275 1058.53 0.0865 0 0.004 0.0825 
2721 0.381393 1424.55 0.112 0 0.0035 0.1085 
2729 0.575715 1997.98 0.1545 0 0.006 0.1485 
2737 0.673169 2063.73 0.187 0 0.0095 0.1775 
2745 0.74909 2054.97 0.2215 0 0.0105 0.211 
2753 0.808678 2190.17 0.246 0 0.01 0.236 
2761 0.847211 2295.41 0.466 0 0.0145 0.4515 
2769 0.869422 2369.05 0.7945 0 0.023 0.7715 
2777 0.899798 2369.57 1.428 0 0.052 1.376 
2785 0.969633 2542.4 2.275 0 0.069 2.206 
2793 0.943783 2356.55 3.1815 0 0.13 3.0515 
2801 0.950816 2358.02 3.9815 0 0.1465 3.835 
2809 1.0085 2560.54 4.3675 0 0.163 4.2045 
2817 0.00176975 1.77049 0.0005 0 0 0.0005 
2825 0 0 0 0 0 0 
2833 0.00245583 12.6777 0.0015 0 0.0005 0.001 
2841 0.0013837 5.17613 0.001 0 0 0.001 
2849 0.0156493 75.0811 0.0085 0 0 0.0085 
2857 0.0173602 56.3127 0.009 0 0.001 0.008 
2865 0.016381 56.6497 0.0085 0 0.001 0.0075 
2873 0.0393123 155.885 0.0175 0 0.001 0.0165 
2881 0.0335969 172.844 0.015 0 0.001 0.014 
2889 0.102861 537.036 0.041 0 0.001 0.04 
2897 0.180326 810.145 0.066 0 0.002 0.064 
2905 0.26715 1140.96 0.0875 0 0.002 0.0855 
2913 0.390124 1480.22 0.12 0 0.0045 0.1155 
2921 0.468646 1499.49 0.1345 0 0.0055 0.129 
2929 0.74502 2255.35 0.199 0 0.01 0.189 
2937 0.708654 1948.04 0.2215 0 0.0115 0.21 
2945 0.842401 2436.62 0.2595 0 0.008 0.2515 
2953 0.82196 2209.33 0.448 0 0.012 0.436 
2961 0.853371 2277.56 0.794 0 0.0315 0.7625 
2969 0.909555 2359.65 1.3865 0 0.054 1.3325 
2977 0.978192 2618.47 2.1975 0 0.091 2.1065 
2985 0.921043 2350.76 3.0635 0 0.1105 2.953 
2993 0.927025 2312.28 3.8645 0 0.1475 3.717 
3001 0.968742 2466.9 4.2165 0 0.1545 4.062 
3009 0 0 0 0 0 0 
3017 0.000775393 1.79555 0.0005 0 0 0.0005 
3025 0.00214468 7.44181 0.0015 0 0.0005 0.001 
3033 0.00366627 15.1663 0.0025 0 0 0.0025 
3041 0.00333403 14.2974 0.002 0 0.0005 0.0015 
3049 0.0162152 49.0535 0.0075 0 0 0.0075 
3057 0.0223661 85.3253 0.0115 0 0.001 0.0105 
3065 0.0284743 80.4432 0.0125 0 0 0.0125 
3073 0.0589918 248.978 0.0245 0 0.0015 0.023 
3081 0.103253 587.646 0.039 0 0.001 0.038 
3089 0.134423 585.792 0.0495 0 0.002 0.0475 
3097 0.246858 1045.37 0.076 0 0.003 0.073 
3105 0.372237 1377.13 0.1125 0 0.0045 0.108 
3113 0.544349 1759.22 0.1535 0 0.007 0.1465 
3121 0.580006 1708.66 0.176 0 0.008 0.168 
3129 0.795339 2296.77 0.2405 0 0.0075 0.233 
3137 0.894178 2419.22 0.278 0 0.008 0.27 
3145 0.761801 2051.31 0.4275 0 0.015 0.4125 
3153 0.823725 2187.02 0.7725 0 0.028 0.7445 
3161 0.877029 2313.64 1.3485 0 0.055 1.2935 
3169 0.938037 2441.61 2.121 0 0.0865 2.0345 
3177 0.907218 2302.57 3.038 0 0.113 2.925 
3185 0.896647 2238.58 3.7425 0 0.1395 3.603 
3193 0.959632 2445.17 4.1795 0 0.152 4.0275 
3201 0 0 0 0 0 0 
3209 0.00119431 0.870119 0.0005 0 0 0.0005 
3217 0.00503059 11.2339 0.0025 0 0 0.0025 
3225 0.0037576 16.3932 0.0025 0 0 0.0025 
3233 0.00776075 21.9166 0.0045 0 0.0005 0.004 
3241 0.00795359 33.1143 0.0045 0 0 0.0045 
3249 0.0176979 85.1842 0.0085 0 0 0.0085 
3257 0.0513685 201.281 0.023 0 0.001 0.022 
3265 0.0516548 234.651 0.023 0 0.0005 0.0225 
3273 0.102017 451.135 0.0385 0 0.002 0.0365 
3281 0.165178 730.631 0.058 0 0.005 0.053 
3289 0.243785 948.144 0.077 0 0.0005 0.0765 
3297 0.350225 1318.67 0.114 0 0.0055 0.1085 
3305 0.564142 1913.06 0.168 0 0.007 0.161 
3313 0.691656 2000.47 0.208 0 0.0095 0.1985 
3321 0.810533 2273.14 0.2425 0 0.0115 0.231 
3329 0.845878 2292.17 0.2715 0 0.009 0.2625 
3337 0.83101 2291.91 0.4445 0 0.017 0.4275 
3345 0.882954 2345.39 0.8015 0 0.027 0.7745 
3353 0.89448 2366.34 1.329 0 0.0525 1.2765 
3361 0.926258 2430.89 2.095 0 0.0725 2.0225 
3369 0.909188 2306.5 3.029 0 0.1135 2.9155 
3377 0.896212 2229.32 3.7465 0 0.15 3.5965 
3385 0.969747 2479.77 4.1855 0 0.1765 4.009 
3393 0 0 0 0 0 0 
3401 0 0 0 0 0 0 
3409 0.00248763 6.0591 0.0015 0 0 0.0015 
3417 0.00372784 28.8766 0.002 0 0 0.002 
3425 0.0122628 58.8615 0.006 0 0 0.006 
3433 0.0135059 35.2654 0.007 0 0.0005 0.0065 
3441 0.0170722 55.5751 0.009 0 0.0005 0.0085 
3449 0.0281481 124.982 0.0135 0 0 0.0135 
3457 0.0712753 318.188 0.03 0 0.002 0.028 
3465 0.127923 589.379 0.0525 0 0.003 0.0495 
3473 0.182547 715.442 0.067 0 0.0025 0.0645 
3481 0.253739 1011.72 0.087 0 0.0015 0.0855 
3489 0.353148 1265.96 0.116 0 0.0065 0.1095 
3497 0.507602 1622.72 0.153 0 0.005 0.148 
3505 0.650965 1867.08 0.209 0 0.0075 0.2015 
3513 0.863585 2447.78 0.264 0 0.008 0.256 
3521 0.868068 2381.95 0.258 0 0.0125 0.2455 
3529 0.787349 2132.12 0.4385 0 0.0155 0.423 
3537 0.868709 2364.04 0.7995 0 0.024 0.7755 
3545 0.86283 2285.42 1.3395 0 0.0495 1.29 
3553 0.896094 2353.3 2.011 0 0.0775 1.9335 
3561 0.900162 2299.59 2.964 0 0.114 2.85 
3569 0.909714 2248.38 3.769 0 0.1345 3.6345 
3577 0.948517 2399.87 4.083 0 0.137 3.946 
3585 0 0 0 0 0 0 
3593 0.00226679 14.3126 0.0015 0 0.0005 0.001 
3601 0.00215547 1.50504 0.001 0 0 0.001 
3609 0.00486963 12.3017 0.0025 0 0.0005 0.002 
3617 0.00622798 29.8538 0.0035 0 0.0005 0.003 
3625 0.0102576 57.0859 0.0055 0 0.0005 0.005 
3633 0.0136102 78.1152 0.008 0 0.001 0.007 
3641 0.0319234 142.903 0.014 0 0.0005 0.0135 
3649 0.0656536 254.307 0.0285 0 0.001 0.0275 
3657 0.109231 474.524 0.045 0 0.0015 0.0435 
3665 0.162894 716.655 0.053 0 0.002 0.051 
3673 0.284193 1008.68 0.0945 0 0.0045 0.09 
3681 0.356507 1231 0.1175 0 0.0025 0.115 
3689 0.574417 1926.33 0.176 0 0.0075 0.1685 
3697 0.684567 2063.55 0.2065 0 0.0095 0.197 
3705 0.830016 2396.47 0.2555 0 0.0085 0.247 
3713 0.784772 2230.28 0.2495 0 0.006 0.2435 
3721 0.884014 2465.18 0.461 0 0.013 0.448 
3729 0.861781 2352.78 0.7775 0 0.0225 0.755 
3737 0.900863 2378.19 1.3275 0 0.047 1.2805 
3745 0.915106 2393.86 2.076 0 0.074 2.002 
3753 0.904845 2311.55 2.9505 0 0.109 2.8415 
3761 0.893979 2233.76 3.7045 0 0.1295 3.575 
3769 0.940577 2358.11 4.0045 0 0.144 3.8605 
3777 0 0 0 0 0 0 
3785 0.000337703 0.848628 0.0005 0 0 0.0005 
3793 0.000718906 1.39082 0.0005 0 0.0005 0 
3801 0 0 0 0 0 0 
3809 0.00188702 13.6535 0.001 0 0 0.001 
3817 0.0152381 38.6729 0.007 0 0.0005 0.0065 
3825 0.0268547 102.583 0.0135 0 0.002 0.0115 
3833 0.0439881 205.003 0.021 0 0 0.021 
3841 0.0610071 335.754 0.0255 0 0.0015 0.024 
3849 0.112085 469.547 0.041 0 0.0005 0.0405 
3857 0.178502 691.538 0.068 0 0.0035 0.0645 
3865 0.26676 969.703 0.0935 0 0.002 0.0915 
3873 0.407737 1388.36 0.124 0 0.005 0.119 
3881 0.646959 2125.58 0.1885 0 0.0045 0.184 
3889 0.794417 2419.87 0.2285 0 0.0055 0.223 
3897 0.850382 2380.06 0.2355 0 0.007 0.2285 
3905 0.811748 2179.82 0.248 0 0.0075 0.2405 
3913 0.923362 2523.57 0.4715 0 0.0165 0.455 
3921 0.829122 2265.48 0.7255 0 0.028 0.6975 
3929 0.884452 2312.14 1.309 0 0.044 1.265 
3937 0.906827 2389.2 2.018 0 0.0725 1.9455 
3945 0.922828 2347.59 3.0495 0 0.1105 2.939 
3953 0.902485 2267.35 3.7105 0 0.1455 3.565 
3961 0.945317 2385.64 4.012 0 0.1535 3.8585 
3969 0.000701199 1.60423 0.0005 0 0 0.0005 
3977 0.000579541 2.72128 0.0005 0 0 0.0005 
3985 0.00110995 6.28108 0.001 0 0 0.001 
3993 0.00458687 20.8277 0.0025 0 0.0005 0.002 
4001 0.00384393 14.3516 0.0025 0 0 0.0025 
4009 0.0160405 51.8664 0.0075 0 0 0.0075 
4017 0.025894 152.582 0.016 0 0.0005 0.0155 
4025 0.0456269 179.598 0.0185 0 0 0.0185 
4033 0.062666 256.903 0.0275 0 0.0015 0.026 
4041 0.126114 600.738 0.047 0 0.0035 0.0435 
4049 0.201124 900.855 0.074 0 0.003 0.071 
4057 0.305402 1178.03 0.099 0 0.003 0.096 
4065 0.377332 1284.99 0.116 0 0.0065 0.1095 
4073 0.601633 1927.64 0.179 0 0.008 0.171 
4081 0.698926 2128.92 0.205 0 0.0055 0.1995 
4089 0.807285 2278.6 0.242 0 0.009 0.233 
4097 0.79059 2167.22 0.235 0 0.0105 0.2245 
4105 0.867209 2402.89 0.4465 0 0.0155 0.431 
4113 0.828413 2253.97 0.761 0 0.0255 0.7355 
4121 0.884741 2364.71 1.293 0 0.048 1.245 
4129 0.870477 2256.65 1.944 0 0.0645 1.8795 
4137 0.920059 2333.24 2.9305 0 0.103 2.8275 
4145 0.889685 2236.99 3.592 0 0.132 3.46 
4153 0.935475 2344.99 3.9225 0 0.132 3.7905 
4161 0 0 0 0 0 0 
4169 0.00147459 1.68233 0.001 0 0.0005 0.0005 
4177 0.0035262 18.5384 0.002 0 0 0.002 
4185 0.00313925 11.7803 0.0015 0 0 0.0015 
4193 0.00358317 25.5074 0.0025 0 0 0.0025 
4201 0.0111223 47.4386 0.0065 0 0 0.0065 
4209 0.0227415 109.658 0.0115 0 0 0.0115 
4217 0.0510224 210.43 0.0235 0 0.0015 0.022 
4225 0.0795402 367.787 0.034 0 0.0005 0.0335 
4233 0.133785 683.853 0.05 0 0.003 0.047 
4241 0.18998 764.135 0.065 0 0.003 0.062 
4249 0.323855 1270.82 0.105 0 0.003 0.102 
4257 0.496538 1786.47 0.149 0 0.0085 0.1405 
4265 0.637739 2116.15 0.183 0 0.0055 0.1775 
4273 0.793467 2313.12 0.221 0 0.008 0.213 
4281 0.870354 2568.64 0.2445 0 0.011 0.2335 
4289 0.809105 2289.98 0.2475 0 0.0095 0.238 
4297 0.842265 2363.57 0.4275 0 0.017 0.4105 
4305 0.897955 2406.53 0.7835 0 0.0285 0.755 
4313 0.891715 2303.48 1.3115 0 0.044 1.2675 
4321 0.861644 2214.22 1.907 0 0.0755 1.8315 
4329 0.902229 2312.95 2.827 0 0.0975 2.7295 
4337 0.891414 2228.73 3.5375 0 0.1415 3.396 
4345 0.910774 2326.59 3.832 0 0.1595 3.6725 
4353 0.00162922 1.04795 0.0005 0 0 0.0005 
4361 0.00214929 9.13327 0.0015 0 0.0005 0.001 
4369 0.0066396 24.5053 0.0045 0 0 0.0045 
4377 0.00149298 5.19705 0.001 0 0 0.001 
4385 0.00434002 7.61346 0.0025 0 0 0.0025 
4393 0.0115161 60.4971 0.007 0 0.0005 0.0065 
4401 0.0146956 79.5926 0.008 0 0.001 0.007 
4409 0.0454241 212.538 0.0215 0 0.001 0.0205 
4417 0.0721916 341.89 0.031 0 0.0005 0.0305 
4425 0.130292 563.545 0.049 0 0.003 0.046 
4433 0.229248 865.182 0.082 0 0.004 0.078 
4441 0.341898 1411.88 0.1055 0 0.0055 0.1 
4449 0.472781 1652.72 0.142 0 0.0085 0.1335 
4457 0.587149 1936.56 0.179 0 0.007 0.172 
4465 0.729401 2195.67 0.201 0 0.01 0.191 
4473 0.915358 2648.15 0.2545 0 0.0085 0.246 
4481 0.886371 2528.35 0.265 0 0.01 0.255 
4489 0.95215 2586.76 0.4745 0 0.0105 0.464 
4497 0.894247 2394.32 0.8105 0 0.0345 0.776 
4505 0.887599 2300.28 1.284 0 0.046 1.238 
4513 0.907517 2347.04 2.018 0 0.0695 1.9485 
4521 0.904199 2322.34 2.7945 0 0.089 2.7055 
4529 0.918154 2327.07 3.5645 0 0.126 3.4385 
4537 0.931014 2354.54 3.8565 0 0.1545 3.702 
4545 0 0 0 0 0 0 
4553 0.00153086 7.43298 0.001 0 0.0005 0.0005 
4561 0.00293822 11.8961 0.002 0 0 0.002 
4569 0.00365196 8.49318 0.0025 0 0.0005 0.002 
4577 0.00380907 10.4984 0.0025 0 0 0.0025 
4585 0.0134659 47.3922 0.008 0 0.001 0.007 
4593 0.0199913 84.6649 0.0115 0 0 0.0115 
4601 0.0461416 192.462 0.0195 0 0.0005 0.019 
4609 0.0715195 370 0.0345 0 0.003 0.0315 
4617 0.133964 632.189 0.052 0 0.003 0.049 
4625 0.229114 953.657 0.08 0 0.0025 0.0775 
4633 0.312278 1230.87 0.104 0 0.0085 0.0955 
4641 0.418319 1493.57 0.129 0 0.0055 0.1235 
4649 0.599771 1912.19 0.17 0 0.006 0.164 
4657 0.679539 2024.66 0.209 0 0.0075 0.2015 
4665 0.856321 2448.31 0.249 0 0.0135 0.2355 
4673 0.831233 2271.7 0.2545 0 0.013 0.2415 
4681 0.865565 2415.39 0.439 0 0.0165 0.4225 
4689 0.849252 2225.91 0.7575 0 0.029 0.7285 
4697 0.861081 2242.43 1.2715 0 0.05 1.2215 
4705 0.880125 2272.1 1.9525 0 0.074 1.8785 
4713 0.901698 2309.03 2.8085 0 0.096 2.7125 
4721 0.919161 2320.94 3.527 0 0.12 3.407 
4729 0.941072 2383.18 3.8165 0 0.1415 3.675 
4737 0.00119362 -0.0718549 0.0005 0 0 0.0005 
4745 0.00374706 12.3249 0.002 0 0.0005 0.0015 
4753 0.000841332 2.43892 0.0005 0 0 0.0005 
4761 0.00801009 30.3865 0.004 0 0 0.004 
4769 0.0037828 19.6244 0.0025 0 0 0.0025 
4777 0.0156971 62.7958 0.0095 0 0.002 0.0075 
4785 0.0252783 86.2375 0.0115 0 0.0005 0.011 
4793 0.0327068 140.27 0.016 0 0.0005 0.0155 
4801 0.0752526 395.277 0.0315 0 0.0015 0.03 
4809 0.111633 520.306 0.048 0 0 0.048 
4817 0.181565 721.975 0.064 0 0.003 0.061 
4825 0.295333 1054.87 0.095 0 0.0035 0.0915 
4833 0.39539 1354.49 0.127 0 0.0045 0.1225 
4841 0.529732 1639.86 0.1595 0 0.003 0.1565 
4849 0.772813 2286.82 0.217 0 0.006 0.211 
4857 0.717727 1982.4 0.2155 0 0.0045 0.211 
4865 0.818691 2227.2 0.2485 0 0.011 0.2375 
4873 0.851829 2358.91 0.4215 0 0.022 0.3995 
4881 0.840745 2243.6 0.726 0 0.0285 0.6975 
4889 0.916862 2397.81 1.3115 0 0.0525 1.259 
4897 0.874541 2260.37 1.8945 0 0.0685 1.826 
4905 0.883396 2228.07 2.7045 0 0.09 2.6145 
4913 0.950287 2407.67 3.5975 0 0.1435 3.454 
4921 0.93306 2331.91 3.7845 0 0.156 3.6285 
4929 0 0 0 0 0 0 
4937 0.0016782 3.60951 0.0015 0 0 0.0015 
4945 0.00257332 9.16753 0.002 0 0 0.002 
4953 0.00473266 10.1943 0.0025 0 0 0.0025 
4961 0.0163897 55.4848 0.008 0 0.001 0.007 
4969 0.0113731 33.7014 0.005 0 0.0005 0.0045 
4977 0.0120985 44.6158 0.0065 0 0 0.0065 
4985 0.0510719 216.576 0.0235 0 0.0015 0.022 
4993 0.0865107 359.029 0.0345 0 0.0015 0.033 
5001 0.153603 634.836 0.055 0 0.0025 0.0525 
5009 0.24095 952.572 0.0815 0 0.0035 0.078 
5017 0.250547 1009.68 0.0865 0 0.004 0.0825 
5025 0.521871 1830.66 0.1515 0 0.006 0.1455 
5033 0.604065 1892.04 0.177 0 0.0055 0.1715 
5041 0.736536 2088.75 0.2 0 0.01 0.19 
5049 0.883879 2486.72 0.253 0 0.009 0.244 
5057 0.855398 2387.74 0.241 0 0.006 0.235 
5065 0.788269 2046.93 0.4175 0 0.014 0.4035 
5073 0.837239 2254.62 0.73 0 0.031 0.699 
5081 0.865246 2261.01 1.2475 0 0.039 1.2085 
5089 0.886846 2301.15 1.868 0 0.0655 1.8025 
5097 0.894396 2236.11 2.733 0 0.085 2.648 
5105 0.914724 2302.08 3.421 0 0.1285 3.2925 
5113 0.935096 2351.03 3.768 0 0.1485 3.6195 
5121 0 0 0 0 0 0 
5129 0.000659184 1.1555 0.0005 0 0 0.0005 
5137 0.00195526 9.10328 0.0015 0 0 0.0015 
5145 0.0142198 39.3421 0.007 0 0.001 0.006 
5153 0.0109632 36.2909 0.007 0 0 0.007 
5161 0.00957295 38.2704 0.007 0 0.0005 0.0065 
5169 0.0230243 110.406 0.0105 0 0 0.0105 
5177 0.0291207 104.393 0.011 0 0.0005 0.0105 
5185 0.0607504 297.009 0.0265 0 0.002 0.0245 
5193 0.149328 664.292 0.05 0 0.0025 0.0475 
5201 0.231548 1035.11 0.0795 0 0.002 0.0775 
5209 0.353468 1396.95 0.1065 0 0.0045 0.102 
5217 0.508598 1819.03 0.1365 0 0.0035 0.133 
5225 0.559659 1779.67 0.1565 0 0.0055 0.151 
5233 0.748342 2259.72 0.209 0 0.006 0.203 
5241 0.850106 2398.77 0.225 0 0.0085 0.2165 
5249 0.852049 2389.56 0.2535 0 0.0075 0.246 
5257 0.830285 2240.99 0.431 0 0.017 0.414 
5265 0.769425 2075.13 0.681 0 0.017 0.664 
5273 0.884221 2325.61 1.226 0 0.041 1.185 
5281 0.880412 2271.79 1.855 0 0.0595 1.7955 
5289 0.889399 2272.78 2.6185 0 0.095 2.5235 
5297 0.925975 2303.9 3.4075 0 0.1365 3.271 
5305 0.961703 2434.71 3.715 0 0.139 3.576 
5313 0 0 0 0 0 0 
5321 0.00197657 6.48692 0.001 0 0 0.001 
5329 0.00194452 6.78539 0.0015 0 0 0.0015 
5337 0.00445014 30.0811 0.003 0 0 0.003 
5345 0.00757104 34.5712 0.0045 0 0 0.0045 
5353 0.0147513 49.3182 0.0065 0 0 0.0065 
5361 0.0315119 108.499 0.0125 0 0 0.0125 
5369 0.0540339 212.836 0.025 0 0.002 0.023 
5377 0.090912 484.053 0.039 0 0.0025 0.0365 
5385 0.160266 734.317 0.0565 0 0.0015 0.055 
5393 0.232183 919.219 0.0785 0 0.0045 0.074 
5401 0.339551 1325.09 0.1 0 0.0035 0.0965 
5409 0.513558 1866.9 0.1375 0 0.006 0.1315 
5417 0.633824 2262.17 0.1765 0 0.0085 0.168 
5425 0.765593 2237.85 0.206 0 0.005 0.201 
5433 0.861073 2389.35 0.24 0 0.0045 0.2355 
5441 0.834687 2340.15 0.238 0 0.0085 0.2295 
5449 0.816902 2188.8 0.41 0 0.014 0.396 
5457 0.873342 2335.79 0.722 0 0.0235 0.6985 
5465 0.887745 2371.93 1.2005 0 0.039 1.1615 
5473 0.881834 2256.56 1.8715 0 0.0685 1.803 
5481 0.873979 2242.01 2.585 0 0.0985 2.4865 
5489 0.929982 2354.65 3.345 0 0.1195 3.2255 
5497 0.93064 2349.24 3.5515 0 0.138 3.4135 
5505 0.00241744 0.055797 0.0005 0 0 0.0005 
5513 0.000784863 4.20175 0.0005 0 0 0.0005 
5521 0.0041575 21.8716 0.002 0 0.0005 0.0015 
5529 0.00659304 18.8764 0.0035 0 0.0005 0.003 
5537 0.00839691 31.8046 0.005 0 0.0005 0.0045 
5545 0.0205835 80.8306 0.0095 0 0.0005 0.009 
5553 0.0279651 96.0647 0.0135 0 0.0015 0.012 
5561 0.0621388 281.338 0.027 0 0.001 0.026 
5569 0.0743958 349.153 0.03 0 0.002 0.028 
5577 0.132221 679.176 0.05 0 0.0025 0.0475 
5585 0.191152 798.295 0.0655 0 0.0015 0.064 
5593 0.330972 1204.86 0.1015 0 0.004 0.0975 
5601 0.409289 1449.46 0.125 0 0.0035 0.1215 
5609 0.536632 1777.23 0.1505 0 0.0025 0.148 
5617 0.669807 1942.37 0.1945 0 0.0055 0.189 
5625 0.782959 2082.35 0.2305 0 0.0095 0.221 