ITEM: TIMESTEP
14000
ITEM: NUMBER OF SURFS
20883
ITEM: BOX BOUNDS oo ro oo
-2.505 0.895
0 2.5
-2.5 2.5
ITEM: SURFS id f_3[1] f_3[2] f_3[3] f_3[4] f_3[5] f_3[6] 
1 0.991834 2426.69 0.0325 0 0.001 0.0315 
9 1.23965 3268.12 0.0135 0 0.00075 0.01275 
17 0.713645 2316.93 0.0015 0 0.00025 0.00125 
25 0 0 0 0 0 0 
33 0 0 0 0 0 0 
41 0 0 0 0 0 0 
49 0 0 0 0 0 0 
57 0 0 0 0 0 0 
65 0 0 0 0 0 0 
73 0 0 0 0 0 0 
81 0 0 0 0 0 0 
89 0 0 0 0 0 0 
97 0 0 0 0 0 0 
105 0.837307 2018.57 0.0005 0 0 0.0005 
113 1.90819 5439.45 0.00075 0 0.00025 0.0005 
121 0 0 0 0 0 0 
129 0 0 0 0 0 0 
137 0 0 0 0 0 0 
145 0 0 0 0 0 0 
153 3.38216 8695.48 0.00175 0 0 0.00175 
161 0.993971 2651.12 0.002 0 0 0.002 
169 1.45142 3699.29 0.00825 0 0 0.00825 
177 1.86005 4196.76 0.04 0 0.00125 0.03875 
185 0 0 0 0 0 0 
193 1.13608 2966.11 4.5265 0 0.17375 4.35275 
201 1.13659 3050.12 4.0855 0 0.17225 3.91325 
209 1.15176 3187.46 3.445 0 0.142 3.303 
217 1.381 3690.21 3.1265 0 0.1285 2.998 
225 1.59185 4011.3 2.78025 0 0.1065 2.67375 
233 1.68939 4116.08 4.10825 0 0.14625 3.962 
241 1.72533 4054.64 5.29425 0 0.1995 5.09475 
249 1.73598 4011.54 6.29075 0 0.22725 6.0635 
257 1.06273 2748.5 4.34325 0 0.17725 4.166 
265 1.05955 2799.79 3.926 0 0.1525 3.7735 
273 1.06486 2924.48 3.249 0 0.13375 3.11525 
281 1.25452 3324.78 2.92625 0 0.103 2.82325 
289 1.41972 3599.4 2.58525 0 0.10375 2.4815 
297 1.51769 3726.09 3.779 0 0.14525 3.63375 
305 1.55502 3637.37 4.9465 0 0.17875 4.76775 
313 1.58079 3646.27 5.9105 0 0.2155 5.695 
321 1.00449 2591.94 4.1255 0 0.16825 3.95725 
329 1.00116 2648.12 3.7495 0 0.13925 3.61025 
337 1.03271 2818.11 3.1585 0 0.12125 3.03725 
345 1.16099 3087.99 2.758 0 0.1095 2.6485 
353 1.34251 3400.36 2.49 0 0.09175 2.39825 
361 1.44145 3540.59 3.5765 0 0.1405 3.436 
369 1.47011 3468.07 4.74475 0 0.171 4.57375 
377 1.48781 3406.81 5.62875 0 0.20625 5.4225 
385 0.974896 2515.4 3.9875 0 0.14875 3.83875 
393 0.97535 2597.48 3.609 0 0.14775 3.46125 
401 0.986477 2681.46 3.0265 0 0.12475 2.90175 
409 1.13636 3036.15 2.6635 0 0.11225 2.55125 
417 1.25662 3178.12 2.38925 0 0.08625 2.303 
425 1.38413 3414.4 3.47325 0 0.1385 3.33475 
433 1.44036 3374.26 4.65275 0 0.1755 4.47725 
441 1.44487 3295.76 5.4585 0 0.2035 5.255 
449 0.970286 2494 3.99525 0 0.16025 3.835 
457 0.954414 2493.93 3.52375 0 0.13675 3.387 
465 0.980933 2658.24 3.00075 0 0.117 2.88375 
473 1.13792 3057.09 2.58925 0 0.108 2.48125 
481 1.26491 3228.72 2.3695 0 0.09025 2.27925 
489 1.32735 3270.11 3.3095 0 0.1285 3.181 
497 1.41166 3341.73 4.48475 0 0.179 4.30575 
505 1.43169 3328.18 5.2705 0 0.19775 5.07275 
513 0.940966 2413.48 3.87875 0 0.142 3.73675 
521 0.959447 2506.61 3.506 0 0.132 3.374 
529 0.973783 2614.08 2.96775 0 0.10475 2.863 
537 1.10057 2984.18 2.51125 0 0.0945 2.41675 
545 1.20672 3078.96 2.2945 0 0.08975 2.20475 
553 1.33289 3298.07 3.314 0 0.126 3.188 
561 1.3697 3237.44 4.32625 0 0.14875 4.1775 
569 1.39344 3231.67 5.1245 0 0.17875 4.94575 
577 0.944181 2415.97 3.7805 0 0.13175 3.64875 
585 0.955134 2508.16 3.456 0 0.14425 3.31175 
593 0.994099 2658.2 2.94925 0 0.1055 2.84375 
601 1.08783 2905.35 2.549 0 0.101 2.448 
609 1.19829 3092.2 2.28825 0 0.0935 2.19475 
617 1.29089 3175.49 3.23825 0 0.12225 3.116 
625 1.35743 3225.91 4.19875 0 0.15175 4.047 
633 1.38106 3168.11 5.0285 0 0.1765 4.852 
641 0.949368 2444.51 3.8335 0 0.1465 3.687 
649 0.938183 2469.69 3.30275 0 0.136 3.16675 
657 0.977269 2608.55 2.89225 0 0.1125 2.77975 
665 1.01765 2694.52 2.415 0 0.09175 2.32325 
673 1.14841 2956.83 2.23625 0 0.08075 2.1555 
681 1.2368 3043.52 3.18025 0 0.1185 3.06175 
689 1.33008 3140.9 4.15975 0 0.15225 4.0075 
697 1.35121 3118.09 4.914 0 0.16825 4.74575 
705 0.963066 2489.33 3.77975 0 0.13475 3.645 
713 1.03768 2795.8 3.46525 0 0.13725 3.328 
721 1.00766 2684.01 2.9735 0 0.11575 2.85775 
729 1.08252 2883.54 2.5625 0 0.096 2.4665 
737 1.20815 3102.47 2.34175 0 0.0915 2.25025 
745 1.29265 3199.81 3.22025 0 0.1145 3.10575 
753 1.36244 3236.48 4.1435 0 0.1495 3.994 
761 1.36208 3138.97 4.88625 0 0.18525 4.701 
769 0.957304 2469.74 3.74225 0 0.14125 3.601 
777 0.989284 2638.35 3.324 0 0.1215 3.2025 
785 0.975101 2559.77 2.9155 0 0.11075 2.80475 
793 1.06726 2783.85 2.55575 0 0.09625 2.4595 
801 1.16619 3008.44 2.315 0 0.09175 2.22325 
809 1.27425 3134.25 3.2335 0 0.11125 3.12225 
817 1.33159 3175.51 4.06325 0 0.1505 3.91275 
825 1.32274 3047.81 4.69875 0 0.17225 4.5265 
833 0.969641 2484.01 3.74325 0 0.133 3.61025 
841 0.980343 2567.55 3.2895 0 0.1315 3.158 
849 1.02035 2671.29 3.02025 0 0.12275 2.8975 
857 1.05064 2717.47 2.52725 0 0.09275 2.4345 
865 1.15229 2932.78 2.3065 0 0.094 2.2125 
873 1.2111 3011.5 3.0535 0 0.124 2.9295 
881 1.32131 3149.49 3.99475 0 0.13625 3.8585 
889 1.33195 3088.73 4.64125 0 0.18425 4.457 
897 0.971946 2502.71 3.6995 0 0.14875 3.55075 
905 0.971222 2536.97 3.22225 0 0.11675 3.1055 
913 0.98987 2554.84 2.91725 0 0.11375 2.8035 
921 1.0572 2723.41 2.5575 0 0.10125 2.45625 
929 1.11908 2828.78 2.30325 0 0.08575 2.2175 
937 1.19272 2915.59 3.03125 0 0.1245 2.90675 
945 1.29239 3043.94 3.86725 0 0.13825 3.729 
953 1.31481 3033.01 4.51925 0 0.165 4.35425 
961 0.98771 2544.08 3.665 0 0.1345 3.5305 
969 0.984831 2527.65 3.22875 0 0.1315 3.09725 
977 1.00658 2607.72 2.90375 0 0.11325 2.7905 
985 1.08433 2774.21 2.599 0 0.10425 2.49475 
993 1.15599 2911.35 2.318 0 0.092 2.226 
1001 1.22383 2999.61 3.06475 0 0.1095 2.95525 
1009 1.27986 3001.91 3.7865 0 0.1415 3.645 
1017 1.33644 3103.55 4.48325 0 0.161 4.32225 
1025 0.981265 2504.13 3.624 0 0.129 3.495 
1033 0.956254 2455.38 3.127 0 0.12 3.007 
1041 0.993321 2533.41 2.84025 0 0.1195 2.72075 
1049 1.06372 2719.05 2.5885 0 0.08875 2.49975 
1057 1.13632 2831.3 2.36825 0 0.084 2.28425 
1065 1.1928 2900.99 3.0265 0 0.11375 2.91275 
1073 1.275 3016.5 3.7235 0 0.144 3.5795 
1081 1.32271 3083.28 4.32225 0 0.1565 4.16575 
1089 0.980047 2494.71 3.552 0 0.12225 3.42975 
1097 0.965821 2468.67 3.08375 0 0.11 2.97375 
1105 1.01082 2589.07 2.80775 0 0.094 2.71375 
1113 1.05655 2662.66 2.603 0 0.08875 2.51425 
1121 1.12626 2807.16 2.37225 0 0.08575 2.2865 
1129 1.15654 2820.71 2.9115 0 0.1075 2.804 
1137 1.24671 2970 3.52875 0 0.1235 3.40525 
1145 1.28062 2967.44 4.17175 0 0.1575 4.01425 
1153 0.983561 2467.14 3.50675 0 0.1315 3.37525 
1161 0.962514 2456.14 2.9945 0 0.11425 2.88025 
1169 0.992913 2543.49 2.76875 0 0.10825 2.6605 
1177 1.07041 2701.67 2.619 0 0.09675 2.52225 
1185 1.12745 2801.32 2.40225 0 0.09725 2.305 
1193 1.15675 2796.33 2.9195 0 0.1125 2.807 
1201 1.24396 2953.45 3.5415 0 0.1365 3.405 
1209 1.26108 2888.12 4.02975 0 0.15725 3.8725 
1217 0.98175 2471.57 3.405 0 0.13475 3.27025 
1225 1.02779 2674.94 2.98825 0 0.11075 2.8775 
1233 1.05987 2739.38 2.845 0 0.11275 2.73225 
1241 1.06486 2673.71 2.58125 0 0.09075 2.4905 
1249 1.11037 2738.46 2.3675 0 0.097 2.2705 
1257 1.19115 2888.76 2.925 0 0.10725 2.81775 
1265 1.24478 2909.54 3.49025 0 0.1255 3.36475 
1273 1.3064 3071.4 3.9015 0 0.1325 3.769 
1281 0.963841 2433.16 3.3075 0 0.11875 3.18875 
1289 1.02554 2645.17 2.9425 0 0.11075 2.83175 
1297 1.08527 2775.97 2.84475 0 0.104 2.74075 
1305 1.1097 2792.43 2.629 0 0.09125 2.53775 
1313 1.13657 2827.41 2.39825 0 0.094 2.30425 
1321 1.2189 2984.41 2.95175 0 0.11025 2.8415 
1329 1.28829 3060.91 3.499 0 0.12875 3.37025 
1337 1.27875 3001.61 3.75475 0 0.13425 3.6205 
1345 0.983092 2490.21 3.24175 0 0.11475 3.127 
1353 1.04134 2701.18 2.878 0 0.10475 2.77325 
1361 1.08001 2748.49 2.83075 0 0.1055 2.72525 
1369 1.08507 2709.68 2.629 0 0.1035 2.5255 
1377 1.18149 2921.71 2.4895 0 0.098 2.3915 
1385 1.17998 2860.35 2.93925 0 0.114 2.82525 
1393 1.19199 2825.16 3.22425 0 0.124 3.10025 
1401 1.27979 2974.95 3.68225 0 0.13075 3.5515 
1409 0.973281 2439.99 3.1335 0 0.11825 3.01525 
1417 1.03243 2633.14 2.85275 0 0.10575 2.747 
1425 1.03625 2586.16 2.74475 0 0.0965 2.64825 
1433 1.07352 2651.21 2.5985 0 0.09625 2.50225 
1441 1.11895 2735.37 2.43575 0 0.094 2.34175 
1449 1.1705 2789.49 2.929 0 0.11075 2.81825 
1457 1.24105 2949.78 3.298 0 0.12425 3.17375 
1465 1.26955 2937.39 3.55775 0 0.1245 3.43325 
1473 0.976412 2469.42 3.0485 0 0.108 2.9405 
1481 1.03053 2608.41 2.7735 0 0.11225 2.66125 
1489 1.01117 2500.9 2.653 0 0.109 2.544 
1497 1.06463 2623.47 2.5545 0 0.0855 2.469 
1505 1.11812 2711.13 2.4715 0 0.0885 2.383 
1513 1.13285 2699.84 2.799 0 0.1035 2.6955 
1521 1.191 2801.36 3.11 0 0.11425 2.99575 
1529 1.24698 2897.41 3.3895 0 0.11775 3.27175 
1537 0.97636 2449.9 2.94525 0 0.1055 2.83975 
1545 1.00727 2543.58 2.61825 0 0.0965 2.52175 
1553 1.07409 2677.66 2.659 0 0.09075 2.56825 
1561 1.10985 2740.37 2.6525 0 0.092 2.5605 
1569 1.16134 2827.06 2.5275 0 0.09875 2.42875 
1577 1.17954 2830.55 2.8465 0 0.10475 2.74175 
1585 1.22068 2908.31 3.0265 0 0.1185 2.908 
1593 1.27027 2944.46 3.307 0 0.12475 3.18225 
1601 0.931183 2323.52 2.711 0 0.10775 2.60325 
1609 0.99832 2509.04 2.524 0 0.0945 2.4295 
1617 1.04609 2602.1 2.62425 0 0.08525 2.539 
1625 1.06952 2618.37 2.56925 0 0.097 2.47225 
1633 1.13653 2763.43 2.55625 0 0.098 2.45825 
1641 1.13492 2702.27 2.789 0 0.10225 2.68675 
1649 1.17948 2770.32 2.93675 0 0.10425 2.8325 
1657 1.22062 2837.54 3.121 0 0.10325 3.01775 
1665 0.926817 2294.55 2.5865 0 0.10575 2.48075 
1673 1.02629 2546.79 2.51025 0 0.1015 2.40875 
1681 1.0393 2555.21 2.57225 0 0.0995 2.47275 
1689 1.05951 2613.03 2.51975 0 0.09875 2.421 
1697 1.1076 2737.85 2.47625 0 0.09175 2.3845 
1705 1.1461 2758.76 2.74075 0 0.096 2.64475 
1713 1.17295 2765.79 2.891 0 0.11075 2.78025 
1721 1.21853 2830.43 2.982 0 0.108 2.874 
1729 0.993803 2466.42 2.56225 0 0.09275 2.4695 
1737 0.976725 2437.29 2.2845 0 0.095 2.1895 
1745 1.03917 2549.32 2.549 0 0.09575 2.45325 
1753 1.05651 2555.75 2.58375 0 0.10225 2.4815 
1761 1.08819 2607.76 2.52175 0 0.099 2.42275 
1769 1.13916 2694.87 2.791 0 0.1025 2.6885 
1777 1.16711 2724.11 2.81725 0 0.10925 2.708 
1785 1.20132 2818.51 2.80575 0 0.10425 2.7015 
1793 1.02154 2578.86 2.39775 0 0.09025 2.3075 
1801 1.035 2595.23 2.253 0 0.0805 2.1725 
1809 1.06955 2647.46 2.53175 0 0.10175 2.43 
1817 1.10184 2707.72 2.6325 0 0.09675 2.53575 
1825 1.20956 2958.8 2.713 0 0.1005 2.6125 
1833 1.18909 2870.61 2.8025 0 0.10725 2.69525 
1841 1.2391 2952.02 2.891 0 0.10775 2.78325 
1849 1.24453 2962.76 2.6715 0 0.0995 2.572 
1857 1.02418 2576.25 2.27025 0 0.09025 2.18 
1865 1.03521 2578.56 2.17225 0 0.0805 2.09175 
1873 1.07166 2633.03 2.5235 0 0.088 2.4355 
1881 1.10739 2719.77 2.6805 0 0.09925 2.58125 
1889 1.15775 2808.6 2.6975 0 0.098 2.5995 
1897 1.20138 2890.48 2.815 0 0.1125 2.7025 
1905 1.23168 2904.03 2.84825 0 0.10725 2.741 
1913 1.25002 2952.85 2.5905 0 0.09225 2.49825 
1921 1.00547 2508.39 2.05375 0 0.07 1.98375 
1929 1.01032 2502.39 2.0765 0 0.074 2.0025 
1937 1.09544 2720.94 2.4925 0 0.09475 2.39775 
1945 1.0904 2680.36 2.6455 0 0.09275 2.55275 
1953 1.14368 2742.87 2.7625 0 0.0985 2.664 
1961 1.17764 2807.35 2.87725 0 0.099 2.77825 
1969 1.21477 2896.61 2.72325 0 0.098 2.62525 
1977 1.25797 2950.63 2.47025 0 0.091 2.37925 
1985 1.01472 2531.5 1.8425 0 0.0735 1.769 
1993 1.0326 2534.61 2.05975 0 0.065 1.99475 
2001 1.03167 2541.68 2.405 0 0.0915 2.3135 
2009 1.10105 2706.32 2.709 0 0.101 2.608 
2017 1.14084 2735.13 2.80825 0 0.1015 2.70675 
2025 1.1577 2769.28 2.832 0 0.10475 2.72725 
2033 1.20068 2867.24 2.70425 0 0.09775 2.6065 
2041 1.2473 2931.97 2.33525 0 0.0865 2.24875 
2049 0.995823 2443.78 1.512 0 0.0575 1.4545 
2057 0.988383 2431.59 1.91575 0 0.0795 1.83625 
2065 1.06456 2633.95 2.44325 0 0.08725 2.356 
2073 1.06032 2559.16 2.66425 0 0.0975 2.56675 
2081 1.11186 2694.98 2.7665 0 0.10125 2.66525 
2089 1.12202 2651.56 2.83325 0 0.10225 2.731 
2097 1.16989 2747.21 2.6675 0 0.09 2.5775 
2105 1.16908 2740.33 2.11875 0 0.07525 2.0435 
2113 0.991391 2454.98 1.13575 0 0.0455 1.09025 
2121 1.0382 2565.64 1.95675 0 0.069 1.88775 
2129 1.07234 2656.52 2.554 0 0.08625 2.46775 
2137 1.06774 2580.12 2.8395 0 0.102 2.7375 
2145 1.0881 2599.56 2.912 0 0.1075 2.8045 
2153 1.11825 2651.4 2.9485 0 0.11225 2.83625 
2161 1.17345 2804.23 2.662 0 0.1025 2.5595 
2169 1.22723 2884.14 2.15975 0 0.08275 2.077 
2177 1.04544 2658.04 0.648 0 0.0195 0.6285 
2185 1.00675 2478.55 2.1435 0 0.07675 2.06675 
2193 1.03937 2549.08 2.84625 0 0.10825 2.738 
2201 1.03083 2487.37 3.156 0 0.12125 3.03475 
2209 1.07802 2581.39 3.30025 0 0.124 3.17625 
2217 1.10842 2611.73 3.261 0 0.1165 3.1445 
2225 1.16042 2747.54 3.041 0 0.11 2.931 
2233 1.17874 2764.41 2.35225 0 0.074 2.27825 
2241 0 0 0 0 0 0 
2249 0.000329911 0.717859 0.00025 0 0 0.00025 
2257 0.00336353 6.15897 0.0015 0 0 0.0015 
2265 0.00432826 16.2929 0.0025 0 0 0.0025 
2273 0.0110244 35.5054 0.00625 0 0.00025 0.006 
2281 0.00919831 45.8181 0.005 0 0.00025 0.00475 
2289 0.0213473 79.5964 0.01 0 0.0005 0.0095 
2297 0.0282982 113.872 0.0125 0 0.0005 0.012 
2305 0.0585751 256.902 0.02275 0 0.002 0.02075 
2313 0.109525 555.643 0.04375 0 0.00175 0.042 
2321 0.186265 925.83 0.0635 0 0.0015 0.062 
2329 0.244169 1164.23 0.0745 0 0.0035 0.071 
2337 0.364529 1440.17 0.1045 0 0.003 0.1015 
2345 0.545907 2015.37 0.1415 0 0.0065 0.135 
2353 0.701084 2276.6 0.17125 0 0.007 0.16425 
2361 0.843873 2585.25 0.21125 0 0.0065 0.20475 
2369 0.835918 2343 0.22725 0 0.009 0.21825 
2377 0.938261 2569.21 0.4835 0 0.019 0.4645 
2385 0.960608 2618.91 0.87075 0 0.03175 0.839 
2393 1.03339 2747.39 1.59425 0 0.06325 1.531 
2401 1.09737 2936.49 2.537 0 0.09725 2.43975 
2409 1.04563 2721.49 3.48125 0 0.13975 3.3415 
2417 1.08421 2746.63 4.42525 0 0.17775 4.2475 
2425 1.12087 2919.4 4.71375 0 0.1815 4.53225 
2433 0.00262003 6.69112 0.0005 0 0.00025 0.00025 
2441 0.000660092 0.717653 0.00075 0 0.00025 0.0005 
2449 0.00279884 14.4833 0.00175 0 0 0.00175 
2457 0.00487874 17.8557 0.00275 0 0 0.00275 
2465 0.00535301 24.722 0.0035 0 0 0.0035 
2473 0.0163094 80.9182 0.00925 0 0 0.00925 
2481 0.0171707 66.6684 0.0075 0 0.0005 0.007 
2489 0.0362627 166.374 0.016 0 0.00125 0.01475 
2497 0.0534245 194.558 0.02275 0 0.00075 0.022 
2505 0.109056 526.437 0.041 0 0.00175 0.03925 
2513 0.18243 844.087 0.06 0 0.0025 0.0575 
2521 0.267923 1092.89 0.0815 0 0.00225 0.07925 
2529 0.387875 1480.83 0.11225 0 0.00575 0.1065 
2537 0.559722 1953.78 0.15175 0 0.0035 0.14825 
2545 0.673563 2085.88 0.17825 0 0.00625 0.172 
2553 0.810248 2338.82 0.2115 0 0.00775 0.20375 
2561 0.784901 2164.53 0.22975 0 0.0075 0.22225 
2569 0.883597 2504.93 0.462 0 0.01775 0.44425 
2577 0.885475 2365.88 0.82325 0 0.0285 0.79475 
2585 0.926011 2475.03 1.4405 0 0.05075 1.38975 
2593 1.0202 2712.56 2.3765 0 0.0865 2.29 
2601 0.99167 2513.93 3.3405 0 0.1395 3.201 
2609 1.01034 2544.04 4.22075 0 0.15875 4.062 
2617 1.05068 2692.28 4.50875 0 0.174 4.33475 
2625 0.000804252 0.0790688 0.00025 0 0 0.00025 
2633 0.000870086 3.36734 0.00075 0 0.00025 0.0005 
2641 0.00281555 11.8068 0.0015 0 0 0.0015 
2649 0.00390915 10.5178 0.00275 0 0.00025 0.0025 
2657 0.00780733 31.784 0.00425 0 0.00025 0.004 
2665 0.0164117 57.5996 0.0085 0 0.0005 0.008 
2673 0.020755 101.469 0.00975 0 0 0.00975 
2681 0.0319361 138.177 0.01375 0 0.001 0.01275 
2689 0.0587564 238.848 0.0255 0 0.00175 0.02375 
2697 0.0990796 481.416 0.0405 0 0.0025 0.038 
2705 0.178383 839.254 0.0625 0 0.0025 0.06 
2713 0.267524 1017.5 0.08475 0 0.00375 0.081 
2721 0.387631 1465.57 0.11575 0 0.0035 0.11225 
2729 0.557177 1934.2 0.1525 0 0.0065 0.146 
2737 0.679861 2149.26 0.19 0 0.00625 0.18375 
2745 0.770206 2168.82 0.2305 0 0.00875 0.22175 
2753 0.821097 2261.67 0.25425 0 0.01 0.24425 
2761 0.84333 2297.84 0.45475 0 0.014 0.44075 
2769 0.860082 2337.75 0.788 0 0.0255 0.7625 
2777 0.91733 2409.08 1.44325 0 0.05025 1.393 
2785 0.977679 2583.09 2.2775 0 0.07225 2.20525 
2793 0.941685 2378.83 3.18575 0 0.1325 3.05325 
2801 0.954315 2373.57 4.00825 0 0.15275 3.8555 
2809 1.00551 2546.82 4.366 0 0.1595 4.2065 
2817 0.00158907 3.82916 0.0005 0 0 0.0005 
2825 0.000969828 2.60389 0.00025 0 0 0.00025 
2833 0.00246466 7.97707 0.0015 0 0.00025 0.00125 
2841 0.0026661 10.3586 0.0015 0 0 0.0015 
2849 0.0119058 56.1877 0.00675 0 0 0.00675 
2857 0.0154764 58.0164 0.00775 0 0.00075 0.007 
2865 0.0178878 83.7372 0.009 0 0.0005 0.0085 
2873 0.0375701 148.861 0.01625 0 0.001 0.01525 
2881 0.0519048 220.765 0.021 0 0.0015 0.0195 
2889 0.100543 492.039 0.04025 0 0.0015 0.03875 
2897 0.170219 777.011 0.06075 0 0.00225 0.0585 
2905 0.285614 1231.84 0.0875 0 0.002 0.0855 
2913 0.409867 1467.08 0.1255 0 0.005 0.1205 
2921 0.498952 1660.06 0.1425 0 0.0065 0.136 
2929 0.710305 2134.7 0.19725 0 0.00775 0.1895 
2937 0.746824 2083.93 0.2265 0 0.0095 0.217 
2945 0.822235 2296.5 0.2585 0 0.00875 0.24975 
2953 0.850924 2317.36 0.46025 0 0.01475 0.4455 
2961 0.853545 2289.61 0.787 0 0.02925 0.75775 
2969 0.912176 2386.83 1.39875 0 0.0505 1.34825 
2977 0.980906 2590.08 2.2335 0 0.08475 2.14875 
2985 0.92201 2342.5 3.10475 0 0.1175 2.98725 
2993 0.928453 2323.24 3.90275 0 0.1475 3.75525 
3001 0.973256 2471.14 4.24525 0 0.15975 4.0855 
3009 0 0 0 0 0 0 
3017 0.000387696 0.897773 0.00025 0 0 0.00025 
3025 0.00118182 3.93008 0.001 0 0.00025 0.00075 
3033 0.00221373 8.08387 0.0015 0 0 0.0015 
3041 0.00577353 23.6575 0.00325 0 0.00025 0.003 
3049 0.0160591 59.7699 0.00775 0 0.00025 0.0075 
3057 0.0219371 78.8005 0.01025 0 0.00175 0.0085 
3065 0.0354314 138.591 0.01575 0 0.001 0.01475 
3073 0.0590064 257.489 0.02525 0 0.00175 0.0235 
3081 0.0929056 513.361 0.0355 0 0.00125 0.03425 
3089 0.16136 725.641 0.058 0 0.00225 0.05575 
3097 0.237902 1020.95 0.078 0 0.00275 0.07525 
3105 0.36587 1343.96 0.11375 0 0.004 0.10975 
3113 0.528644 1754.28 0.152 0 0.00525 0.14675 
3121 0.59302 1743.81 0.18125 0 0.00675 0.1745 
3129 0.798664 2244.77 0.24475 0 0.008 0.23675 
3137 0.874895 2403.86 0.271 0 0.00875 0.26225 
3145 0.781618 2126.92 0.432 0 0.01575 0.41625 
3153 0.840458 2210.46 0.79775 0 0.02875 0.769 
3161 0.869933 2303.13 1.35175 0 0.05475 1.297 
3169 0.941043 2466.68 2.141 0 0.0895 2.0515 
3177 0.906613 2283.96 3.052 0 0.10525 2.94675 
3185 0.905203 2256.05 3.81675 0 0.14275 3.674 
3193 0.969759 2477.1 4.198 0 0.15925 4.03875 
3201 0 0 0 0 0 0 
3209 0.000597155 0.435059 0.00025 0 0 0.00025 
3217 0.0053004 18.7969 0.003 0 0.00025 0.00275 
3225 0.00268625 11.4988 0.0015 0 0 0.0015 
3233 0.00677469 24.5519 0.00425 0 0.00075 0.0035 
3241 0.0098131 35.2181 0.005 0 0 0.005 
3249 0.0137183 66.1498 0.00725 0 0 0.00725 
3257 0.0439691 175.395 0.019 0 0.00075 0.01825 
3265 0.0537216 251.45 0.0235 0 0.00075 0.02275 
3273 0.104346 515.933 0.04125 0 0.0015 0.03975 
3281 0.163129 744.617 0.0595 0 0.004 0.0555 
3289 0.252095 993.781 0.082 0 0.0015 0.0805 
3297 0.355123 1303.5 0.11275 0 0.005 0.10775 
3305 0.539619 1791.8 0.15775 0 0.00575 0.152 
3313 0.654656 1880.61 0.20275 0 0.009 0.19375 
3321 0.824896 2309.13 0.247 0 0.01 0.237 
3329 0.871997 2419.66 0.2715 0 0.00975 0.26175 
3337 0.827831 2290.56 0.45125 0 0.019 0.43225 
3345 0.867992 2296.85 0.804 0 0.02725 0.77675 
3353 0.897542 2375.85 1.3545 0 0.048 1.3065 
3361 0.932505 2451.27 2.10725 0 0.06775 2.0395 
3369 0.902647 2296.6 2.99875 0 0.1215 2.87725 
3377 0.903806 2252.9 3.779 0 0.14975 3.62925 
3385 0.962526 2451.59 4.15625 0 0.16675 3.9895 
3393 0 0 0 0 0 0 
3401 0.00153777 3.45914 0.001 0 0 0.001 
3409 0.00327465 12.6003 0.00225 0 0.00025 0.002 
3417 0.00559226 22.5845 0.003 0 0 0.003 
3425 0.00849484 47.7109 0.00475 0 0 0.00475 
3433 0.0120513 35.6399 0.00625 0 0.0005 0.00575 
3441 0.0157979 60.4719 0.00775 0 0.00025 0.0075 
3449 0.0322726 126.075 0.01525 0 0.00025 0.015 
3457 0.0604854 270.907 0.02575 0 0.0015 0.02425 
3465 0.124178 571.689 0.05 0 0.0025 0.0475 
3473 0.174908 707.633 0.0635 0 0.00275 0.06075 
3481 0.255062 1007.3 0.084 0 0.0015 0.0825 
3489 0.385497 1287.54 0.12475 0 0.0045 0.12025 
3497 0.508216 1651.3 0.152 0 0.00575 0.14625 
3505 0.68321 1972.75 0.209 0 0.007 0.202 
3513 0.807243 2227.88 0.24775 0 0.0075 0.24025 
3521 0.845212 2312.82 0.256 0 0.0105 0.2455 
3529 0.784063 2151.4 0.4355 0 0.01625 0.41925 
3537 0.864474 2331.4 0.8005 0 0.023 0.7775 
3545 0.875312 2313.1 1.34525 0 0.0475 1.29775 
3553 0.897418 2371.62 2.01375 0 0.08 1.93375 
3561 0.891991 2264.41 2.95625 0 0.10975 2.8465 
3569 0.921013 2288.88 3.82 0 0.1415 3.6785 
3577 0.94558 2392.47 4.0575 0 0.14525 3.91225 
3585 0 0 0 0 0 0 
3593 0.00113339 7.15631 0.00075 0 0.00025 0.0005 
3601 0.00178706 2.83262 0.001 0 0 0.001 
3609 0.00416607 12.3803 0.00225 0 0.00025 0.002 
3617 0.00506971 26.7465 0.00325 0 0.00025 0.003 
3625 0.0100581 45.1194 0.0055 0 0.001 0.0045 
3633 0.0198749 97.3888 0.01 0 0.00075 0.00925 
3641 0.0366586 174.971 0.01675 0 0.00075 0.016 
3649 0.0630147 252.685 0.02575 0 0.001 0.02475 
3657 0.110158 463.355 0.0415 0 0.00125 0.04025 
3665 0.168407 742.979 0.06 0 0.0025 0.0575 
3673 0.274183 1034.48 0.0915 0 0.00525 0.08625 
3681 0.390713 1347.29 0.12875 0 0.0035 0.12525 
3689 0.56625 1816.39 0.17275 0 0.007 0.16575 
3697 0.695307 2105.5 0.20875 0 0.00875 0.2 
3705 0.832173 2341.72 0.25225 0 0.00975 0.2425 
3713 0.827718 2367.35 0.25475 0 0.00675 0.248 
3721 0.858958 2371.62 0.454 0 0.015 0.439 
3729 0.862111 2338.43 0.77075 0 0.026 0.74475 
3737 0.899209 2377.13 1.3315 0 0.04275 1.28875 
3745 0.919178 2406.25 2.085 0 0.07125 2.01375 
3753 0.911876 2302.98 2.972 0 0.1115 2.8605 
3761 0.907181 2272 3.7275 0 0.13275 3.59475 
3769 0.943519 2372.64 4.022 0 0.1475 3.8745 
3777 0.00141918 2.29116 0.00025 0 0.00025 0 
3785 0.00108991 0.954015 0.00075 0 0 0.00075 
3793 0.00342687 9.52389 0.002 0 0.00025 0.00175 
3801 0.000280381 1.36054 0.00025 0 0 0.00025 
3809 0.00702772 35.4651 0.004 0 0.0005 0.0035 
3817 0.0145335 50.2259 0.007 0 0.0005 0.0065 
3825 0.0242966 98.3773 0.01225 0 0.001 0.01125 
3833 0.0399941 166.592 0.0195 0 0 0.0195 
3841 0.0686045 351.027 0.029 0 0.00175 0.02725 
3849 0.111555 475.779 0.0445 0 0.00175 0.04275 
3857 0.176798 714.196 0.066 0 0.003 0.063 
3865 0.26729 994.058 0.0935 0 0.0025 0.091 
3873 0.444761 1543.87 0.13975 0 0.00525 0.1345 
3881 0.585331 1921.16 0.17425 0 0.006 0.16825 
3889 0.774526 2333.65 0.22475 0 0.00525 0.2195 
3897 0.849673 2415.41 0.24225 0 0.0085 0.23375 
3905 0.836066 2302.27 0.25275 0 0.0085 0.24425 
3913 0.864857 2379.45 0.4425 0 0.01525 0.42725 
3921 0.830206 2280.42 0.727 0 0.02625 0.70075 
3929 0.869193 2279.54 1.2935 0 0.04325 1.25025 
3937 0.888622 2337.25 1.992 0 0.072 1.92 
3945 0.913751 2328.17 2.97225 0 0.113 2.85925 
3953 0.905252 2269.01 3.682 0 0.14675 3.53525 
3961 0.936251 2371.56 3.99825 0 0.14675 3.8515 
3969 0.000350599 0.802113 0.00025 0 0 0.00025 
3977 0.000982404 4.92113 0.00075 0 0 0.00075 
3985 0.00420717 12.03 0.0015 0 0 0.0015 
3993 0.00324796 11.6306 0.002 0 0.00025 0.00175 
4001 0.00358839 14.2985 0.0025 0 0 0.0025 
4009 0.0163388 49.3807 0.00775 0 0 0.00775 
4017 0.0231427 108.989 0.013 0 0.00025 0.01275 
4025 0.0367423 126.705 0.015 0 0 0.015 
4033 0.0651191 299.306 0.03025 0 0.002 0.02825 
4041 0.123463 598.767 0.05 0 0.00275 0.04725 
4049 0.186142 829.968 0.0715 0 0.0025 0.069 
4057 0.291322 1077.27 0.09525 0 0.00325 0.092 
4065 0.394031 1301.66 0.12425 0 0.00575 0.1185 
4073 0.600821 1946.02 0.17825 0 0.006 0.17225 
4081 0.674971 2044.21 0.20225 0 0.00675 0.1955 
4089 0.823244 2305.76 0.24475 0 0.00875 0.236 
4097 0.861813 2396.76 0.2575 0 0.01075 0.24675 
4105 0.869331 2442.76 0.44675 0 0.014 0.43275 
4113 0.832407 2256.01 0.75975 0 0.02475 0.735 
4121 0.874093 2326.06 1.28625 0 0.0465 1.23975 
4129 0.867459 2262.8 1.9365 0 0.0685 1.868 
4137 0.919974 2352.39 2.91975 0 0.1095 2.81025 
4145 0.896447 2257.6 3.599 0 0.13475 3.46425 
4153 0.933443 2344.31 3.9105 0 0.1345 3.776 
4161 0 0 0 0 0 0 
4169 0.00114529 1.8426 0.00075 0 0.00025 0.0005 
4177 0.00390412 15.8035 0.0025 0 0.00025 0.00225 
4185 0.00217236 11.3823 0.00125 0 0 0.00125 
4193 0.00473158 24.6986 0.003 0 0.00025 0.00275 
4201 0.00810026 32.5329 0.0045 0 0 0.0045 
4209 0.0235953 108.429 0.0125 0 0.00025 0.01225 
4217 0.0405542 184.682 0.0195 0 0.001 0.0185 
4225 0.06983 340.507 0.0305 0 0.00075 0.02975 
4233 0.129821 634.901 0.04975 0 0.0025 0.04725 
4241 0.203407 873.744 0.071 0 0.0025 0.0685 
4249 0.307802 1191.29 0.0975 0 0.0035 0.094 
4257 0.445561 1612.69 0.136 0 0.00675 0.12925 
4265 0.62729 1997.42 0.17925 0 0.0065 0.17275 
4273 0.789517 2312.3 0.22275 0 0.00825 0.2145 
4281 0.89783 2619.99 0.252 0 0.0105 0.2415 
4289 0.841461 2345.92 0.2555 0 0.0105 0.245 
4297 0.841296 2310.15 0.431 0 0.01675 0.41425 
4305 0.876688 2338.07 0.7785 0 0.0275 0.751 
4313 0.878509 2262.4 1.3025 0 0.04725 1.25525 
4321 0.860915 2198.47 1.9325 0 0.068 1.8645 
4329 0.904119 2312.8 2.82575 0 0.10625 2.7195 
4337 0.889584 2230.89 3.542 0 0.1415 3.4005 
4345 0.919281 2337.7 3.8525 0 0.15125 3.70125 
4353 0.000814608 0.523974 0.00025 0 0 0.00025 
4361 0.00145024 4.616 0.001 0 0.00025 0.00075 
4369 0.0055982 17.7933 0.00375 0 0 0.00375 
4377 0.00261333 10.0797 0.00175 0 0 0.00175 
4385 0.00473228 12.7008 0.00225 0 0.00025 0.002 
4393 0.0132567 60.0941 0.0075 0 0.00025 0.00725 
4401 0.016729 84.3408 0.009 0 0.001 0.008 
4409 0.0430589 185.109 0.021 0 0.001 0.02 
4417 0.0706369 329.121 0.03175 0 0.001 0.03075 
4425 0.114971 495.494 0.04425 0 0.0025 0.04175 
4433 0.214814 790.389 0.076 0 0.00325 0.07275 
4441 0.344023 1400.36 0.1075 0 0.00425 0.10325 
4449 0.475227 1648.51 0.14125 0 0.00725 0.134 
4457 0.605732 2021.56 0.1805 0 0.00625 0.17425 
4465 0.775873 2350.43 0.21725 0 0.00975 0.2075 
4473 0.868808 2499.37 0.24825 0 0.00925 0.239 
4481 0.864495 2436.61 0.24925 0 0.00925 0.24 
4489 0.884802 2369.72 0.453 0 0.012 0.441 
4497 0.880872 2359.79 0.78375 0 0.03225 0.7515 
4505 0.887709 2345.45 1.2755 0 0.0485 1.227 
4513 0.907014 2355.23 2.00125 0 0.075 1.92625 
4521 0.899596 2288.89 2.812 0 0.10175 2.71025 
4529 0.909366 2302.88 3.5575 0 0.13475 3.42275 
4537 0.947292 2397.27 3.91025 0 0.155 3.75525 
4545 0 0 0 0 0 0 
4553 0.00195438 5.5107 0.0015 0 0.0005 0.001 
4561 0.00379152 11.4938 0.00225 0 0.00025 0.002 
4569 0.0027803 9.71802 0.00175 0 0.00025 0.0015 
4577 0.00602069 20.0485 0.0035 0 0 0.0035 
4585 0.0123801 46.1424 0.00675 0 0.00075 0.006 
4593 0.022801 97.0574 0.012 0 0 0.012 
4601 0.0413335 173.315 0.01775 0 0.0005 0.01725 
4609 0.0685219 329.059 0.0325 0 0.00225 0.03025 
4617 0.129133 596.935 0.05225 0 0.00325 0.049 
4625 0.206259 896.66 0.0705 0 0.0025 0.068 
4633 0.31954 1265.63 0.10375 0 0.00625 0.0975 
4641 0.443906 1546.78 0.13225 0 0.007 0.12525 
4649 0.580033 1821.32 0.16875 0 0.00625 0.1625 
4657 0.734567 2164.42 0.21825 0 0.0065 0.21175 
4665 0.841037 2372.77 0.2435 0 0.00925 0.23425 
4673 0.87304 2407.93 0.2595 0 0.01075 0.24875 
4681 0.859228 2341.25 0.447 0 0.018 0.429 
4689 0.838925 2211.82 0.74475 0 0.0275 0.71725 
4697 0.85716 2227.42 1.267 0 0.04575 1.22125 
4705 0.886456 2292.73 1.96175 0 0.07075 1.891 
4713 0.913093 2349.16 2.8245 0 0.09675 2.72775 
4721 0.920291 2311.77 3.5445 0 0.1195 3.425 
4729 0.926873 2340.42 3.78225 0 0.1415 3.64075 
4737 0.00059681 -0.0359275 0.00025 0 0 0.00025 
4745 0.00281514 8.85986 0.00175 0 0.0005 0.00125 
4753 0.00154373 3.40427 0.00075 0 0 0.00075 
4761 0.00686291 27.087 0.0035 0 0 0.0035 
4769 0.00655955 28.1076 0.00375 0 0 0.00375 
4777 0.0151282 61.11 0.00825 0 0.001 0.00725 
4785 0.026962 97.4173 0.01325 0 0.0005 0.01275 
4793 0.0380425 162.526 0.0175 0 0.00025 0.01725 
4801 0.0755783 374.35 0.033 0 0.001 0.032 
4809 0.117488 568.286 0.04825 0 0.0015 0.04675 
4817 0.187456 812.65 0.065 0 0.0025 0.0625 
4825 0.308489 1175.07 0.099 0 0.003 0.096 
4833 0.395601 1343 0.1255 0 0.0045 0.121 
4841 0.524261 1659.91 0.15725 0 0.00375 0.1535 
4849 0.751724 2149.01 0.21875 0 0.00675 0.212 
4857 0.780178 2206.59 0.22925 0 0.0065 0.22275 
4865 0.850309 2348.65 0.25 0 0.0115 0.2385 
4873 0.862611 2392.91 0.433 0 0.0205 0.4125 
4881 0.833864 2218.44 0.738 0 0.02775 0.71025 
4889 0.899912 2342.84 1.2775 0 0.052 1.2255 
4897 0.879352 2269.71 1.91475 0 0.06975 1.845 
4905 0.898359 2255.96 2.739 0 0.09425 2.64475 
4913 0.944248 2389.7 3.57525 0 0.14 3.43525 
4921 0.920536 2310.68 3.75875 0 0.1455 3.61325 
4929 0 0 0 0 0 0 
4937 0.000839102 1.80476 0.00075 0 0 0.00075 
4945 0.00315578 11.2036 0.00175 0 0 0.00175 
4953 0.00415327 11.4882 0.00225 0 0 0.00225 
4961 0.010479 32.4172 0.00525 0 0.0005 0.00475 
4969 0.0123786 38.876 0.006 0 0.00025 0.00575 
4977 0.018219 62.6927 0.00875 0 0.00025 0.0085 
4985 0.0502665 200.173 0.022 0 0.00125 0.02075 
4993 0.0768469 341.985 0.02975 0 0.00125 0.0285 
5001 0.13363 588.742 0.051 0 0.003 0.048 
5009 0.204277 812.748 0.0725 0 0.00425 0.06825 
5017 0.262324 1030.98 0.0875 0 0.0045 0.083 
5025 0.487008 1706.92 0.14325 0 0.00525 0.138 
5033 0.583544 1841.5 0.17175 0 0.00525 0.1665 
5041 0.779713 2292.09 0.2135 0 0.00875 0.20475 
5049 0.884391 2457.7 0.24675 0 0.00725 0.2395 
5057 0.847734 2367.26 0.2455 0 0.008 0.2375 
5065 0.808115 2108.42 0.41825 0 0.012 0.40625 
5073 0.869049 2316.62 0.7415 0 0.02775 0.71375 
5081 0.858348 2222.01 1.237 0 0.045 1.192 
5089 0.888536 2317.11 1.88325 0 0.0685 1.81475 
5097 0.887735 2221.12 2.71075 0 0.09125 2.6195 
5105 0.927665 2338.56 3.469 0 0.132 3.337 
5113 0.932069 2349.14 3.72875 0 0.13875 3.59 
5121 0 0 0 0 0 0 
5129 0.00267779 7.29138 0.0015 0 0.00025 0.00125 
5137 0.00252443 7.55682 0.00175 0 0 0.00175 
5145 0.0111896 32.5637 0.0055 0 0.0005 0.005 
5153 0.00868374 35.3558 0.0055 0 0.00025 0.00525 
5161 0.0126613 38.2865 0.0075 0 0.0005 0.007 
5169 0.0279863 113.269 0.012 0 0.00025 0.01175 
5177 0.0450737 185.794 0.01875 0 0.0005 0.01825 
5185 0.0724196 352.89 0.0315 0 0.0025 0.029 
5193 0.151123 717.342 0.054 0 0.002 0.052 
5201 0.23338 1012.62 0.07775 0 0.00225 0.0755 
5209 0.340426 1334.6 0.10525 0 0.004 0.10125 
5217 0.49386 1757.96 0.13525 0 0.0045 0.13075 
5225 0.622497 2028.91 0.169 0 0.00625 0.16275 
5233 0.761265 2268.69 0.20675 0 0.007 0.19975 
5241 0.826221 2371.94 0.2235 0 0.007 0.2165 
5249 0.815432 2301.59 0.2405 0 0.00925 0.23125 
5257 0.820051 2265.51 0.4135 0 0.01575 0.39775 
5265 0.802362 2124.33 0.696 0 0.023 0.673 
5273 0.872193 2274.14 1.21675 0 0.04175 1.175 
5281 0.880336 2265.57 1.86 0 0.06375 1.79625 
5289 0.915349 2360.54 2.676 0 0.099 2.577 
5297 0.927461 2309.34 3.4025 0 0.135 3.2675 
5305 0.963602 2447.71 3.719 0 0.14575 3.57325 