ITEM: TIMESTEP
10000
ITEM: NUMBER OF CELLS
11858
ITEM: BOX BOUNDS oo ro oo
-2.505 0.895
0 2.5
-2.5 2.5
ITEM: CELLS id f_2[1] f_2[2] f_2[3] f_2[4] f_2[5] f_2[6] f_2[7] f_2[8] 
1 0 0 0 0 0 0 0 0 
2 0 0 0 0 0 0 0 0 
3 0 0 0 0 0 0 0 0 
4 0 0 0 0 0 0 0 0 
11 0 0 0 0 0 0 0 0 
12 0 0 0 0 0 0 0 0 
13 0 0 0 0 0 0 0 0 
14 0 0 0 0 0 0 0 0 
21 0 0 0 0 0 0 0 0 
22 0 0 0 0 0 0 0 0 
23 0 0 0 0 0 0 0 0 
24 0 0 0 0 0 0 0 0 
31 0 0 0 0 0 0 0 0 
32 0 0 0 0 0 0 0 0 
33 0 0 0 0 0 0 0 0 
34 0 0 0 0 0 0 0 0 
41 0 0 0 0 0 0 0 0 
42 0 0 0 0 0 0 0 0 
43 0 0 0 0 0 0 0 0 
44 0 0 0 0 0 0 0 0 
51 0 0 0 0 0 0 0 0 
52 0 0 0 0 0 0 0 0 
53 0 0 0 0 0 0 0 0 
54 0 0 0 0 0 0 0 0 
61 0 0 0 0 0 0 0 0 
62 0 0 0 0 0 0 0 0 
63 0 0 0 0 0 0 0 0 
64 0 0 0 0 0 0 0 0 
71 0 0 0 0 0 0 0 0 
72 0 0 0 0 0 0 0 0 
73 0 0 0 0 0 0 0 0 
74 0 0 0 0 0 0 0 0 
81 0 0 0 0 0 0 0 0 
82 0 0 0 0 0 0 0 0 
83 0 0 0 0 0 0 0 0 
84 0 0 0 0 0 0 0 0 
91 0 0 0 0 0 0 0 0 
92 0 0 0 0 0 0 0 0 
93 0 0 0 0 0 0 0 0 
94 0 0 0 0 0 0 0 0 
101 0 0 0 0 0 0 0 0 
102 0 0 0 0 0 0 0 0 
103 0 0 0 0 0 0 0 0 
104 0 0 0 0 0 0 0 0 
111 0 0 0 0 0 0 0 0 
112 0 0 0 0 0 0 0 0 
113 0 0 0 0 0 0 0 0 
114 0 0 0 0 0 0 0 0 
121 0 0 0 0 0 0 0 0 
122 0 0 0 0 0 0 0 0 
123 0 0 0 0 0 0 0 0 
124 0 0 0 0 0 0 0 0 
131 0 0 0 0 0 0 0 0 
132 0 0 0 0 0 0 0 0 
133 0 0 0 0 0 0 0 0 
134 0 0 0 0 0 0 0 0 
141 0 0 0 0 0 0 0 0 
142 0 0 0 0 0 0 0 0 
143 0 0 0 0 0 0 0 0 
144 0 0 0 0 0 0 0 0 
151 0 0 0 0 0 0 0 0 
152 0 0 0 0 0 0 0 0 
153 0 0 0 0 0 0 0 0 
154 0 0 0 0 0 0 0 0 
161 0 0 0 0 0 0 0 0 
162 0 0 0 0 0 0 0 0 
163 0 0 0 0 0 0 0 0 
164 0 0 0 0 0 0 0 0 
171 0 0 0 0 0 0 0 0 
172 0 0 0 0 0 0 0 0 
173 0 0 0 0 0 0 0 0 
174 0 0 0 0 0 0 0 0 
181 0 0 0 0 0 0 0 0 
182 0 0 0 0 0 0 0 0 
183 0 0 0 0 0 0 0 0 
184 0 0 0 0 0 0 0 0 
191 0 0 0 0 0 0 0 0 
192 0 0 0 0 0 0 0 0 
193 0 0 0 0 0 0 0 0 
194 0 0 0 0 0 0 0 0 
201 0 0 0 0 0 0 0 0 
202 0 0 0 0 0 0 0 0 
203 0 0 0 0 0 0 0 0 
204 0 0 0 0 0 0 0 0 
262 0 0 0 0 0 0 0 0 
263 0 0 0 0 0 0 0 0 
264 0 0 0 0 0 0 0 0 
271 0 0 0 0 0 0 0 0 
272 0 0 0 0 0 0 0 0 
273 0 0 0 0 0 0 0 0 
274 0 0 0 0 0 0 0 0 
211 0 0 0 0 0 0 0 0 
212 0 0 0 0 0 0 0 0 
213 0 0 0 0 0 0 0 0 
214 0 0 0 0 0 0 0 0 
221 0 0 0 0 0 0 0 0 
222 0 0 0 0 0 0 0 0 
223 0 0 0 0 0 0 0 0 
224 0 0 0 0 0 0 0 0 
231 0 0 0 0 0 0 0 0 
232 0 0 0 0 0 0 0 0 
233 0 0 0 0 0 0 0 0 
234 0 0 0 0 0 0 0 0 
241 0 0 0 0 0 0 0 0 
242 0 0 0 0 0 0 0 0 
243 0 0 0 0 0 0 0 0 
244 0 0 0 0 0 0 0 0 
251 0 0 0 0 0 0 0 0 
252 0 0 0 0 0 0 0 0 
253 0 0 0 0 0 0 0 0 
254 0 0 0 0 0 0 0 0 
261 0 0 0 0 0 0 0 0 
281 0 0 0 0 0 0 0 0 
282 0 0 0 0 0 0 0 0 
176 0 0 0 0 0 0 0 0 
186 0 0 0 0 0 0 0 0 
196 0 0 0 0 0 0 0 0 
206 0 0 0 0 0 0 0 0 
255 0 0 0 0 0 0 0 0 
5 0 0 0 0 0 0 0 0 
15 0 0 0 0 0 0 0 0 
25 0 0 0 0 0 0 0 0 
35 0 0 0 0 0 0 0 0 
45 0 0 0 0 0 0 0 0 
55 0 0 0 0 0 0 0 0 
65 0 0 0 0 0 0 0 0 
75 0 0 0 0 0 0 0 0 
85 0 0 0 0 0 0 0 0 
95 0 0 0 0 0 0 0 0 
105 0 0 0 0 0 0 0 0 
115 0 0 0 0 0 0 0 0 
125 0 0 0 0 0 0 0 0 
135 0 0 0 0 0 0 0 0 
145 0 0 0 0 0 0 0 0 
155 0 0 0 0 0 0 0 0 
165 0 0 0 0 0 0 0 0 
175 0 0 0 0 0 0 0 0 
185 0 0 0 0 0 0 0 0 
195 0 0 0 0 0 0 0 0 
205 0 0 0 0 0 0 0 0 
6 0 0 0 0 0 0 0 0 
16 0 0 0 0 0 0 0 0 
26 0 0 0 0 0 0 0 0 
36 0 0 0 0 0 0 0 0 
46 0 0 0 0 0 0 0 0 
56 0 0 0 0 0 0 0 0 
66 0 0 0 0 0 0 0 0 
76 0 0 0 0 0 0 0 0 
86 0 0 0 0 0 0 0 0 
96 0 0 0 0 0 0 0 0 
106 0 0 0 0 0 0 0 0 
116 0 0 0 0 0 0 0 0 
126 0 0 0 0 0 0 0 0 
136 0 0 0 0 0 0 0 0 
146 0 0 0 0 0 0 0 0 
156 0 0 0 0 0 0 0 0 
166 0 0 0 0 0 0 0 0 
283 0 0 0 0 0 0 0 0 
284 0 0 0 0 0 0 0 0 
291 0 0 0 0 0 0 0 0 
292 0 0 0 0 0 0 0 0 
293 0 0 0 0 0 0 0 0 
294 0 0 0 0 0 0 0 0 
301 0 0 0 0 0 0 0 0 
302 0 0 0 0 0 0 0 0 
303 0 0 0 0 0 0 0 0 
304 0 0 0 0 0 0 0 0 
311 0 0 0 0 0 0 0 0 
312 0 0 0 0 0 0 0 0 
313 0 0 0 0 0 0 0 0 
314 0 0 0 0 0 0 0 0 
321 0 0 0 0 0 0 0 0 
322 0 0 0 0 0 0 0 0 
323 0 0 0 0 0 0 0 0 
324 0 0 0 0 0 0 0 0 
331 0 0 0 0 0 0 0 0 
332 0 0 0 0 0 0 0 0 
333 0 0 0 0 0 0 0 0 
334 0 0 0 0 0 0 0 0 
341 0 0 0 0 0 0 0 0 
342 0 0 0 0 0 0 0 0 
343 0 0 0 0 0 0 0 0 
344 0 0 0 0 0 0 0 0 
351 0 0 0 0 0 0 0 0 
352 0 0 0 0 0 0 0 0 
353 0 0 0 0 0 0 0 0 
354 0 0 0 0 0 0 0 0 
361 0 0 0 0 0 0 0 0 
362 0 0 0 0 0 0 0 0 
363 0 0 0 0 0 0 0 0 
364 0 0 0 0 0 0 0 0 
371 0 0 0 0 0 0 0 0 
372 0 0 0 0 0 0 0 0 
373 0 0 0 0 0 0 0 0 
374 0 0 0 0 0 0 0 0 
381 0 0 0 0 0 0 0 0 
382 0 0 0 0 0 0 0 0 
383 0 0 0 0 0 0 0 0 
384 0 0 0 0 0 0 0 0 
391 0 0 0 0 0 0 0 0 
392 0 0 0 0 0 0 0 0 
393 0 0 0 0 0 0 0 0 
394 0 0 0 0 0 0 0 0 
401 0 0 0 0 0 0 0 0 
402 0 0 0 0 0 0 0 0 
403 0 0 0 0 0 0 0 0 
404 0 0 0 0 0 0 0 0 
411 0 0 0 0 0 0 0 0 
412 0 0 0 0 0 0 0 0 
413 0 0 0 0 0 0 0 0 
414 0 0 0 0 0 0 0 0 
421 0 0 0 0 0 0 0 0 
422 0 0 0 0 0 0 0 0 
423 0 0 0 0 0 0 0 0 
424 0 0 0 0 0 0 0 0 
431 0 0 0 0 0 0 0 0 
432 0 0 0 0 0 0 0 0 
433 0 0 0 0 0 0 0 0 
434 0 0 0 0 0 0 0 0 
441 0 0 0 0 0 0 0 0 
442 0 0 0 0 0 0 0 0 
443 0 0 0 0 0 0 0 0 
444 0 0 0 0 0 0 0 0 
451 0 0 0 0 0 0 0 0 
452 0 0 0 0 0 0 0 0 
453 0 0 0 0 0 0 0 0 
454 0 0 0 0 0 0 0 0 
455 0 0 0 0 0 0 0 0 
461 0 0 0 0 0 0 0 0 
462 0 0 0 0 0 0 0 0 
463 0 0 0 0 0 0 0 0 
464 0 0 0 0 0 0 0 0 
465 0 0 0 0 0 0 0 0 
471 0 0 0 0 0 0 0 0 
472 0 0 0 0 0 0 0 0 
473 0 0 0 0 0 0 0 0 
474 0 0 0 0 0 0 0 0 
475 0 0 0 0 0 0 0 0 
481 0 0 0 0 0 0 0 0 
482 0 0 0 0 0 0 0 0 
483 0 0 0 0 0 0 0 0 
484 0 0 0 0 0 0 0 0 
485 0 0 0 0 0 0 0 0 
306 0 0 0 0 0 0 0 0 
316 0 0 0 0 0 0 0 0 
326 0 0 0 0 0 0 0 0 
336 0 0 0 0 0 0 0 0 
346 0 0 0 0 0 0 0 0 
356 0 0 0 0 0 0 0 0 
366 0 0 0 0 0 0 0 0 
376 0 0 0 0 0 0 0 0 
386 0 0 0 0 0 0 0 0 
215 0 0 0 0 0 0 0 0 
225 0 0 0 0 0 0 0 0 
235 0 0 0 0 0 0 0 0 
245 0 0 0 0 0 0 0 0 
285 0 0 0 0 0 0 0 0 
295 0 0 0 0 0 0 0 0 
305 0 0 0 0 0 0 0 0 
315 0 0 0 0 0 0 0 0 
325 0 0 0 0 0 0 0 0 
335 0 0 0 0 0 0 0 0 
345 0 0 0 0 0 0 0 0 
355 0 0 0 0 0 0 0 0 
365 0 0 0 0 0 0 0 0 
375 0 0 0 0 0 0 0 0 
385 0 0 0 0 0 0 0 0 
395 0 0 0 0 0 0 0 0 
405 0 0 0 0 0 0 0 0 
415 0 0 0 0 0 0 0 0 
425 0 0 0 0 0 0 0 0 
435 0 0 0 0 0 0 0 0 
445 0 0 0 0 0 0 0 0 
265 0 0 0 0 0 0 0 0 
275 0 0 0 0 0 0 0 0 
7 0 0 0 0 0 0 0 0 
8 0 0 0 0 0 0 0 0 
17 0 0 0 0 0 0 0 0 
18 0 0 0 0 0 0 0 0 
27 0 0 0 0 0 0 0 0 
28 0 0 0 0 0 0 0 0 
37 0 0 0 0 0 0 0 0 
38 0 0 0 0 0 0 0 0 
47 0 0 0 0 0 0 0 0 
48 0 0 0 0 0 0 0 0 
57 0 0 0 0 0 0 0 0 
58 0 0 0 0 0 0 0 0 
67 0 0 0 0 0 0 0 0 
68 0 0 0 0 0 0 0 0 
77 0 0 0 0 0 0 0 0 
78 0 0 0 0 0 0 0 0 
87 0 0 0 0 0 0 0 0 
88 0 0 0 0 0 0 0 0 
97 0 0 0 0 0 0 0 0 
98 0 0 0 0 0 0 0 0 
107 0 0 0 0 0 0 0 0 
108 0 0 0 0 0 0 0 0 
117 0 0 0 0 0 0 0 0 
118 0 0 0 0 0 0 0 0 
127 0 0 0 0 0 0 0 0 
128 0 0 0 0 0 0 0 0 
137 0 0 0 0 0 0 0 0 
138 0 0 0 0 0 0 0 0 
147 0 0 0 0 0 0 0 0 
148 0 0 0 0 0 0 0 0 
157 0 0 0 0 0 0 0 0 
158 0 0 0 0 0 0 0 0 
167 0 0 0 0 0 0 0 0 
168 0 0 0 0 0 0 0 0 
177 0 0 0 0 0 0 0 0 
178 0 0 0 0 0 0 0 0 
187 0 0 0 0 0 0 0 0 
188 0 0 0 0 0 0 0 0 
197 0 0 0 0 0 0 0 0 
198 0 0 0 0 0 0 0 0 
207 0 0 0 0 0 0 0 0 
208 0 0 0 0 0 0 0 0 
307 0 0 0 0 0 0 0 0 
308 0 0 0 0 0 0 0 0 
317 0 0 0 0 0 0 0 0 
318 0 0 0 0 0 0 0 0 
327 0 0 0 0 0 0 0 0 
328 0 0 0 0 0 0 0 0 
337 0 0 0 0 0 0 0 0 
338 0 0 0 0 0 0 0 0 
347 0 0 0 0 0 0 0 0 
348 0 0 0 0 0 0 0 0 
357 0 0 0 0 0 0 0 0 
367 0 0 0 0 0 0 0 0 
377 0 0 0 0 0 0 0 0 
387 0 0 0 0 0 0 0 0 
388 0 0 0 0 0 0 0 0 
396 0 0 0 0 0 0 0 0 
397 0 0 0 0 0 0 0 0 
406 0 0 0 0 0 0 0 0 
407 0 0 0 0 0 0 0 0 
416 0 0 0 0 0 0 0 0 
417 0 0 0 0 0 0 0 0 
426 0 0 0 0 0 0 0 0 
427 0 0 0 0 0 0 0 0 
436 0 0 0 0 0 0 0 0 
437 0 0 0 0 0 0 0 0 
446 0 0 0 0 0 0 0 0 
447 0 0 0 0 0 0 0 0 
456 0 0 0 0 0 0 0 0 
457 0 0 0 0 0 0 0 0 
466 0 0 0 0 0 0 0 0 
467 0 0 0 0 0 0 0 0 
476 0 0 0 0 0 0 0 0 
477 0 0 0 0 0 0 0 0 
486 0 0 0 0 0 0 0 0 
487 0 0 0 0 0 0 0 0 
216 0 0 0 0 0 0 0 0 
217 0 0 0 0 0 0 0 0 
226 0 0 0 0 0 0 0 0 
227 0 0 0 0 0 0 0 0 
236 0 0 0 0 0 0 0 0 
237 0 0 0 0 0 0 0 0 
246 0 0 0 0 0 0 0 0 
247 0 0 0 0 0 0 0 0 
256 0 0 0 0 0 0 0 0 
257 0 0 0 0 0 0 0 0 
266 0 0 0 0 0 0 0 0 
267 0 0 0 0 0 0 0 0 
276 0 0 0 0 0 0 0 0 
277 0 0 0 0 0 0 0 0 
286 0 0 0 0 0 0 0 0 
287 0 0 0 0 0 0 0 0 
296 0 0 0 0 0 0 0 0 
297 0 0 0 0 0 0 0 0 
398 0 0 0 0 0 0 0 0 
408 0 0 0 0 0 0 0 0 
418 0 0 0 0 0 0 0 0 
458 0 0 0 0 0 0 0 0 
468 0 0 0 0 0 0 0 0 
478 0 0 0 0 0 0 0 0 
488 0 0 0 0 0 0 0 0 
218 0 0 0 0 0 0 0 0 
228 0 0 0 0 0 0 0 0 
238 0 0 0 0 0 0 0 0 
248 0 0 0 0 0 0 0 0 
258 0 0 0 0 0 0 0 0 
268 0 0 0 0 0 0 0 0 
278 0 0 0 0 0 0 0 0 
2406 0 0 0 0 0 0 0 0 
6502 0 0 0 0 0 0 0 0 
10598 0 0 0 0 0 0 0 0 
14694 0 0 0 0 0 0 0 0 
2476 0 0 0 0 0 0 0 0 
6572 0 0 0 0 0 0 0 0 
2486 0 0 0 0 0 0 0 0 
6582 0 0 0 0 0 0 0 0 
2416 0 0 0 0 0 0 0 0 
6512 0 0 0 0 0 0 0 0 
8560 0 0 0 0 0 0 0 0 
10608 0 0 0 0 0 0 0 0 
14704 0 0 0 0 0 0 0 0 
2496 0 0 0 0 0 0 0 0 
6592 0 0 0 0 0 0 0 0 
8640 0 0 0 0 0 0 0 0 
10688 0 0 0 0 0 0 0 0 
14784 0 0 0 0 0 0 0 0 
16832 0 0 0 0 0 0 0 0 
2336 0 0 0 0 0 0 0 0 
4384 0 0 0 0 0 0 0 0 
6432 0 0 0 0 0 0 0 0 
8480 0 0 0 0 0 0 0 0 
10528 0 0 0 0 0 0 0 0 
14624 0 0 0 0 0 0 0 0 
16672 0 0 0 0 0 0 0 0 
37222 0 0 0 0 0 0 0 0 
102758 0 0 0 0 0 0 0 0 
168294 0 0 0 0 0 0 0 0 
233830 0 0 0 0 0 0 0 0 
41318 0 0 0 0 0 0 0 0 
74086 0 0 0 0 0 0 0 0 
106854 0 0 0 0 0 0 0 0 
139622 0 0 0 0 0 0 0 0 
172390 0 0 0 0 0 0 0 0 
237926 0 0 0 0 0 0 0 0 
45414 0 0 0 0 0 0 0 0 
110950 0 0 0 0 0 0 0 0 
49510 0 0 0 0 0 0 0 0 
115046 0 0 0 0 0 0 0 0 
180582 0 0 0 0 0 0 0 0 
246118 0 0 0 0 0 0 0 0 
70060 0 0 0 0 0 0 0 0 
135596 0 0 0 0 0 0 0 0 
201132 0 0 0 0 0 0 0 0 
266668 0 0 0 0 0 0 0 0 
106924 0 0 0 0 0 0 0 0 
205228 0 0 0 0 0 0 0 0 
270764 0 0 0 0 0 0 0 0 
37302 0 0 0 0 0 0 0 0 
102838 0 0 0 0 0 0 0 0 
168374 0 0 0 0 0 0 0 0 
233910 0 0 0 0 0 0 0 0 
41398 0 0 0 0 0 0 0 0 
106934 0 0 0 0 0 0 0 0 
139702 0 0 0 0 0 0 0 0 
172470 0 0 0 0 0 0 0 0 
238006 0 0 0 0 0 0 0 0 
43317 0 0 0 0 0 0 0 0 
108853 0 0 0 0 0 0 0 0 
174389 0 0 0 0 0 0 0 0 
239925 0 0 0 0 0 0 0 0 
35115 0 0 0 0 0 0 0 0 
100651 0 0 0 0 0 0 0 0 
166187 0 0 0 0 0 0 0 0 
231723 0 0 0 0 0 0 0 0 
39211 0 0 0 0 0 0 0 0 
104747 0 0 0 0 0 0 0 0 
170283 0 0 0 0 0 0 0 0 
235819 0 0 0 0 0 0 0 0 
108843 0 0 0 0 0 0 0 0 
47403 0 0 0 0 0 0 0 0 
112939 0 0 0 0 0 0 0 0 
178475 0 0 0 0 0 0 0 0 
244011 0 0 0 0 0 0 0 0 
43227 0 0 0 0 0 0 0 0 
108763 0 0 0 0 0 0 0 0 
174299 0 0 0 0 0 0 0 0 
239835 0 0 0 0 0 0 0 0 
47323 0 0 0 0 0 0 0 0 
112859 0 0 0 0 0 0 0 0 
178395 0 0 0 0 0 0 0 0 
243931 0 0 0 0 0 0 0 0 
43237 0 0 0 0 0 0 0 0 
108773 0 0 0 0 0 0 0 0 
174309 0 0 0 0 0 0 0 0 
239845 0 0 0 0 0 0 0 0 
4594 0 0 0 0 0 0 0 0 
2556 0 0 0 0 0 0 0 0 
6652 0 0 0 0 0 0 0 0 
10678 0 0 0 0 0 0 0 0 
14774 0 0 0 0 0 0 0 0 
2566 0 0 0 0 0 0 0 0 
6662 0 0 0 0 0 0 0 0 
8710 0 0 0 0 0 0 0 0 
35314 0 0 0 0 0 0 0 0 
100850 0 0 0 0 0 0 0 0 
133618 0 0 0 0 0 0 0 0 
166386 0 0 0 0 0 0 0 0 
231922 0 0 0 0 0 0 0 0 
264690 0 0 0 0 0 0 0 0 
74226 0 0 0 0 0 0 0 0 
139762 0 0 0 0 0 0 0 0 
172530 0 0 0 0 0 0 0 0 
205298 0 0 0 0 0 0 0 0 
270834 0 0 0 0 0 0 0 0 
70140 0 0 0 0 0 0 0 0 
102908 0 0 0 0 0 0 0 0 
201212 0 0 0 0 0 0 0 0 
233980 0 0 0 0 0 0 0 0 
266748 0 0 0 0 0 0 0 0 
41468 0 0 0 0 0 0 0 0 
107004 0 0 0 0 0 0 0 0 
172540 0 0 0 0 0 0 0 0 
238076 0 0 0 0 0 0 0 0 
104967 0 0 0 0 0 0 0 0 
236039 0 0 0 0 0 0 0 0 
35345 0 0 0 0 0 0 0 0 
100881 0 0 0 0 0 0 0 0 
166417 0 0 0 0 0 0 0 0 
231953 0 0 0 0 0 0 0 0 
43436 0 0 0 0 0 0 0 0 
76204 0 0 0 0 0 0 0 0 
108972 0 0 0 0 0 0 0 0 
141740 0 0 0 0 0 0 0 0 
174508 0 0 0 0 0 0 0 0 
240044 0 0 0 0 0 0 0 0 
272812 0 0 0 0 0 0 0 0 
78252 0 0 0 0 0 0 0 0 
143788 0 0 0 0 0 0 0 0 
176556 0 0 0 0 0 0 0 0 
209324 0 0 0 0 0 0 0 0 
242092 0 0 0 0 0 0 0 0 
274860 0 0 0 0 0 0 0 0 
82348 0 0 0 0 0 0 0 0 
147884 0 0 0 0 0 0 0 0 
213420 0 0 0 0 0 0 0 0 
278956 0 0 0 0 0 0 0 0 
111030 0 0 0 0 0 0 0 0 
209334 0 0 0 0 0 0 0 0 
242102 0 0 0 0 0 0 0 0 
49590 0 0 0 0 0 0 0 0 
115126 0 0 0 0 0 0 0 0 
180662 0 0 0 0 0 0 0 0 
246198 0 0 0 0 0 0 0 0 
113089 0 0 0 0 0 0 0 0 
244161 0 0 0 0 0 0 0 0 
166247 0 0 0 0 0 0 0 0 
231783 0 0 0 0 0 0 0 0 
104817 0 0 0 0 0 0 0 0 
174449 0 0 0 0 0 0 0 0 
35195 0 0 0 0 0 0 0 0 
100731 0 0 0 0 0 0 0 0 
166267 0 0 0 0 0 0 0 0 
231803 0 0 0 0 0 0 0 0 
39291 0 0 0 0 0 0 0 0 
104827 0 0 0 0 0 0 0 0 
170363 0 0 0 0 0 0 0 0 
235899 0 0 0 0 0 0 0 0 
108923 0 0 0 0 0 0 0 0 
47483 0 0 0 0 0 0 0 0 
113019 0 0 0 0 0 0 0 0 
178555 0 0 0 0 0 0 0 0 
244091 0 0 0 0 0 0 0 0 
37232 0 0 0 0 0 0 0 0 
70000 0 0 0 0 0 0 0 0 
102768 0 0 0 0 0 0 0 0 
135536 0 0 0 0 0 0 0 0 
168304 0 0 0 0 0 0 0 0 
201072 0 0 0 0 0 0 0 0 
233840 0 0 0 0 0 0 0 0 
266608 0 0 0 0 0 0 0 0 
45424 0 0 0 0 0 0 0 0 
110960 0 0 0 0 0 0 0 0 
143728 0 0 0 0 0 0 0 0 
176496 0 0 0 0 0 0 0 0 
242032 0 0 0 0 0 0 0 0 
49520 0 0 0 0 0 0 0 0 
82288 0 0 0 0 0 0 0 0 
115056 0 0 0 0 0 0 0 0 
147824 0 0 0 0 0 0 0 0 
180592 0 0 0 0 0 0 0 0 
213360 0 0 0 0 0 0 0 0 
246128 0 0 0 0 0 0 0 0 
278896 0 0 0 0 0 0 0 0 
45504 0 0 0 0 0 0 0 0 
78272 0 0 0 0 0 0 0 0 
111040 0 0 0 0 0 0 0 0 
143808 0 0 0 0 0 0 0 0 
176576 0 0 0 0 0 0 0 0 
209344 0 0 0 0 0 0 0 0 
242112 0 0 0 0 0 0 0 0 
274880 0 0 0 0 0 0 0 0 
725350 0 0 0 0 0 0 0 0 
1249638 0 0 0 0 0 0 0 0 
1773926 0 0 0 0 0 0 0 0 
2298214 0 0 0 0 0 0 0 0 
2822502 0 0 0 0 0 0 0 0 
3871078 0 0 0 0 0 0 0 0 
790886 0 0 0 0 0 0 0 0 
1315174 0 0 0 0 0 0 0 0 
1839462 0 0 0 0 0 0 0 0 
2363750 0 0 0 0 0 0 0 0 
2888038 0 0 0 0 0 0 0 0 
3412326 0 0 0 0 0 0 0 0 
3936614 0 0 0 0 0 0 0 0 
4460902 0 0 0 0 0 0 0 0 
729446 0 0 0 0 0 0 0 0 
1253734 0 0 0 0 0 0 0 0 
1778022 0 0 0 0 0 0 0 0 
2302310 0 0 0 0 0 0 0 0 
2826598 0 0 0 0 0 0 0 0 
3350886 0 0 0 0 0 0 0 0 
3875174 0 0 0 0 0 0 0 0 
4399462 0 0 0 0 0 0 0 0 
602470 0 0 0 0 0 0 0 0 
1126758 0 0 0 0 0 0 0 0 
1651046 0 0 0 0 0 0 0 0 
2699622 0 0 0 0 0 0 0 0 
3223910 0 0 0 0 0 0 0 0 
3748198 0 0 0 0 0 0 0 0 
4272486 0 0 0 0 0 0 0 0 
668006 0 0 0 0 0 0 0 0 
1716582 0 0 0 0 0 0 0 0 
2765158 0 0 0 0 0 0 0 0 
3289446 0 0 0 0 0 0 0 0 
3813734 0 0 0 0 0 0 0 0 
4338022 0 0 0 0 0 0 0 0 
1257830 0 0 0 0 0 0 0 0 
2306406 0 0 0 0 0 0 0 0 
2830694 0 0 0 0 0 0 0 0 
3354982 0 0 0 0 0 0 0 0 
3879270 0 0 0 0 0 0 0 0 
4403558 0 0 0 0 0 0 0 0 
799078 0 0 0 0 0 0 0 0 
1323366 0 0 0 0 0 0 0 0 
1847654 0 0 0 0 0 0 0 0 
2371942 0 0 0 0 0 0 0 0 
3420518 0 0 0 0 0 0 0 0 
4469094 0 0 0 0 0 0 0 0 
606566 0 0 0 0 0 0 0 0 
1655142 0 0 0 0 0 0 0 0 
2179430 0 0 0 0 0 0 0 0 
2703718 0 0 0 0 0 0 0 0 
3228006 0 0 0 0 0 0 0 0 
3752294 0 0 0 0 0 0 0 0 
672102 0 0 0 0 0 0 0 0 
1196390 0 0 0 0 0 0 0 0 
1720678 0 0 0 0 0 0 0 0 
2244966 0 0 0 0 0 0 0 0 
2769254 0 0 0 0 0 0 0 0 
3817830 0 0 0 0 0 0 0 0 
4342118 0 0 0 0 0 0 0 0 
737638 0 0 0 0 0 0 0 0 
1261926 0 0 0 0 0 0 0 0 
1786214 0 0 0 0 0 0 0 0 
2310502 0 0 0 0 0 0 0 0 
2834790 0 0 0 0 0 0 0 0 
3359078 0 0 0 0 0 0 0 0 
3883366 0 0 0 0 0 0 0 0 
4407654 0 0 0 0 0 0 0 0 
803174 0 0 0 0 0 0 0 0 
1327462 0 0 0 0 0 0 0 0 
1851750 0 0 0 0 0 0 0 0 
2900326 0 0 0 0 0 0 0 0 
3424614 0 0 0 0 0 0 0 0 
3948902 0 0 0 0 0 0 0 0 
4473190 0 0 0 0 0 0 0 0 
561580 0 0 0 0 0 0 0 0 
1085868 0 0 0 0 0 0 0 0 
1610156 0 0 0 0 0 0 0 0 
2134444 0 0 0 0 0 0 0 0 
2658732 0 0 0 0 0 0 0 0 
3707308 0 0 0 0 0 0 0 0 
4231596 0 0 0 0 0 0 0 0 
627116 0 0 0 0 0 0 0 0 
1151404 0 0 0 0 0 0 0 0 
1675692 0 0 0 0 0 0 0 0 
2199980 0 0 0 0 0 0 0 0 
2724268 0 0 0 0 0 0 0 0 
3248556 0 0 0 0 0 0 0 0 
3772844 0 0 0 0 0 0 0 0 
4297132 0 0 0 0 0 0 0 0 
692652 0 0 0 0 0 0 0 0 
1216940 0 0 0 0 0 0 0 0 
1741228 0 0 0 0 0 0 0 0 
2265516 0 0 0 0 0 0 0 0 
2789804 0 0 0 0 0 0 0 0 
3314092 0 0 0 0 0 0 0 0 
3838380 0 0 0 0 0 0 0 0 
4362668 0 0 0 0 0 0 0 0 
758188 0 0 0 0 0 0 0 0 
1282476 0 0 0 0 0 0 0 0 
1806764 0 0 0 0 0 0 0 0 
2855340 0 0 0 0 0 0 0 0 
3379628 0 0 0 0 0 0 0 0 
3903916 0 0 0 0 0 0 0 0 
4428204 0 0 0 0 0 0 0 0 
598444 0 0 0 0 0 0 0 0 
1122732 0 0 0 0 0 0 0 0 
2171308 0 0 0 0 0 0 0 0 
2695596 0 0 0 0 0 0 0 0 
3219884 0 0 0 0 0 0 0 0 
3744172 0 0 0 0 0 0 0 0 
4268460 0 0 0 0 0 0 0 0 
663980 0 0 0 0 0 0 0 0 
1188268 0 0 0 0 0 0 0 0 
1712556 0 0 0 0 0 0 0 0 
2236844 0 0 0 0 0 0 0 0 
2761132 0 0 0 0 0 0 0 0 
3285420 0 0 0 0 0 0 0 0 
3809708 0 0 0 0 0 0 0 0 
4333996 0 0 0 0 0 0 0 0 
696748 0 0 0 0 0 0 0 0 
1221036 0 0 0 0 0 0 0 0 
1745324 0 0 0 0 0 0 0 0 
2269612 0 0 0 0 0 0 0 0 
2793900 0 0 0 0 0 0 0 0 
3318188 0 0 0 0 0 0 0 0 
3842476 0 0 0 0 0 0 0 0 
4366764 0 0 0 0 0 0 0 0 
594358 0 0 0 0 0 0 0 0 
1118646 0 0 0 0 0 0 0 0 
1642934 0 0 0 0 0 0 0 0 
2167222 0 0 0 0 0 0 0 0 
2691510 0 0 0 0 0 0 0 0 
3215798 0 0 0 0 0 0 0 0 
3740086 0 0 0 0 0 0 0 0 
4264374 0 0 0 0 0 0 0 0 
659894 0 0 0 0 0 0 0 0 
1184182 0 0 0 0 0 0 0 0 
1708470 0 0 0 0 0 0 0 0 
2232758 0 0 0 0 0 0 0 0 
2757046 0 0 0 0 0 0 0 0 
3281334 0 0 0 0 0 0 0 0 
3805622 0 0 0 0 0 0 0 0 
4329910 0 0 0 0 0 0 0 0 
725430 0 0 0 0 0 0 0 0 
1249718 0 0 0 0 0 0 0 0 
1774006 0 0 0 0 0 0 0 0 
2298294 0 0 0 0 0 0 0 0 
2822582 0 0 0 0 0 0 0 0 
3346870 0 0 0 0 0 0 0 0 
3871158 0 0 0 0 0 0 0 0 
4395446 0 0 0 0 0 0 0 0 
790966 0 0 0 0 0 0 0 0 
1315254 0 0 0 0 0 0 0 0 
1839542 0 0 0 0 0 0 0 0 
2888118 0 0 0 0 0 0 0 0 
3412406 0 0 0 0 0 0 0 0 
3936694 0 0 0 0 0 0 0 0 
4460982 0 0 0 0 0 0 0 0 
729526 0 0 0 0 0 0 0 0 
1253814 0 0 0 0 0 0 0 0 
1778102 0 0 0 0 0 0 0 0 
2302390 0 0 0 0 0 0 0 0 
2826678 0 0 0 0 0 0 0 0 
3350966 0 0 0 0 0 0 0 0 
3875254 0 0 0 0 0 0 0 0 
4399542 0 0 0 0 0 0 0 0 
698667 0 0 0 0 0 0 0 0 
1747243 0 0 0 0 0 0 0 0 
2795819 0 0 0 0 0 0 0 0 
3844395 0 0 0 0 0 0 0 0 
39410 0 0 0 0 0 0 0 0 
72178 0 0 0 0 0 0 0 0 
104946 0 0 0 0 0 0 0 0 
137714 0 0 0 0 0 0 0 0 
170482 0 0 0 0 0 0 0 0 
203250 0 0 0 0 0 0 0 0 
236018 0 0 0 0 0 0 0 0 
268786 0 0 0 0 0 0 0 0 
37382 0 0 0 0 0 0 0 0 
70150 0 0 0 0 0 0 0 0 
102918 0 0 0 0 0 0 0 0 
135686 0 0 0 0 0 0 0 0 
168454 0 0 0 0 0 0 0 0 
201222 0 0 0 0 0 0 0 0 
233990 0 0 0 0 0 0 0 0 
266758 0 0 0 0 0 0 0 0 
631282 0 0 0 0 0 0 0 0 
1155570 0 0 0 0 0 0 0 0 
1679858 0 0 0 0 0 0 0 0 
2204146 0 0 0 0 0 0 0 0 
2728434 0 0 0 0 0 0 0 0 
3252722 0 0 0 0 0 0 0 0 
3777010 0 0 0 0 0 0 0 0 
4301298 0 0 0 0 0 0 0 0 
762354 0 0 0 0 0 0 0 0 
1286642 0 0 0 0 0 0 0 0 
1810930 0 0 0 0 0 0 0 0 
2335218 0 0 0 0 0 0 0 0 
3383794 0 0 0 0 0 0 0 0 
3908082 0 0 0 0 0 0 0 0 
4432370 0 0 0 0 0 0 0 0 
598524 0 0 0 0 0 0 0 0 
1122812 0 0 0 0 0 0 0 0 
1647100 0 0 0 0 0 0 0 0 
2171388 0 0 0 0 0 0 0 0 
2695676 0 0 0 0 0 0 0 0 
3219964 0 0 0 0 0 0 0 0 
3744252 0 0 0 0 0 0 0 0 
4268540 0 0 0 0 0 0 0 0 
729596 0 0 0 0 0 0 0 0 
1253884 0 0 0 0 0 0 0 0 
1778172 0 0 0 0 0 0 0 0 
2302460 0 0 0 0 0 0 0 0 
2826748 0 0 0 0 0 0 0 0 
3351036 0 0 0 0 0 0 0 0 
3875324 0 0 0 0 0 0 0 0 
4399612 0 0 0 0 0 0 0 0 
559623 0 0 0 0 0 0 0 0 
1608199 0 0 0 0 0 0 0 0 
2656775 0 0 0 0 0 0 0 0 
3705351 0 0 0 0 0 0 0 0 
625159 0 0 0 0 0 0 0 0 
1673735 0 0 0 0 0 0 0 0 
2722311 0 0 0 0 0 0 0 0 
3770887 0 0 0 0 0 0 0 0 
690695 0 0 0 0 0 0 0 0 
1739271 0 0 0 0 0 0 0 0 
2787847 0 0 0 0 0 0 0 0 
3836423 0 0 0 0 0 0 0 0 
756231 0 0 0 0 0 0 0 0 
1804807 0 0 0 0 0 0 0 0 
2853383 0 0 0 0 0 0 0 0 
3901959 0 0 0 0 0 0 0 0 
569772 0 0 0 0 0 0 0 0 
1094060 0 0 0 0 0 0 0 0 
1618348 0 0 0 0 0 0 0 0 
2142636 0 0 0 0 0 0 0 0 
2666924 0 0 0 0 0 0 0 0 
3191212 0 0 0 0 0 0 0 0 
3715500 0 0 0 0 0 0 0 0 
4239788 0 0 0 0 0 0 0 0 
635308 0 0 0 0 0 0 0 0 
1159596 0 0 0 0 0 0 0 0 
1683884 0 0 0 0 0 0 0 0 
2208172 0 0 0 0 0 0 0 0 
3256748 0 0 0 0 0 0 0 0 
3781036 0 0 0 0 0 0 0 0 
4305324 0 0 0 0 0 0 0 0 
573868 0 0 0 0 0 0 0 0 
1098156 0 0 0 0 0 0 0 0 
1622444 0 0 0 0 0 0 0 0 
2146732 0 0 0 0 0 0 0 0 
2671020 0 0 0 0 0 0 0 0 
3195308 0 0 0 0 0 0 0 0 
3719596 0 0 0 0 0 0 0 0 
4243884 0 0 0 0 0 0 0 0 
639404 0 0 0 0 0 0 0 0 
1163692 0 0 0 0 0 0 0 0 
1687980 0 0 0 0 0 0 0 0 
2212268 0 0 0 0 0 0 0 0 
2736556 0 0 0 0 0 0 0 0 
3260844 0 0 0 0 0 0 0 0 
3785132 0 0 0 0 0 0 0 0 
4309420 0 0 0 0 0 0 0 0 
704940 0 0 0 0 0 0 0 0 
1229228 0 0 0 0 0 0 0 0 
1753516 0 0 0 0 0 0 0 0 
2277804 0 0 0 0 0 0 0 0 
2802092 0 0 0 0 0 0 0 0 
3326380 0 0 0 0 0 0 0 0 
3850668 0 0 0 0 0 0 0 0 
4374956 0 0 0 0 0 0 0 0 
770476 0 0 0 0 0 0 0 0 
1294764 0 0 0 0 0 0 0 0 
1819052 0 0 0 0 0 0 0 0 
2343340 0 0 0 0 0 0 0 0 
2867628 0 0 0 0 0 0 0 0 
3391916 0 0 0 0 0 0 0 0 
3916204 0 0 0 0 0 0 0 0 
4440492 0 0 0 0 0 0 0 0 
668086 0 0 0 0 0 0 0 0 
1192374 0 0 0 0 0 0 0 0 
1716662 0 0 0 0 0 0 0 0 
2240950 0 0 0 0 0 0 0 0 
2765238 0 0 0 0 0 0 0 0 
3289526 0 0 0 0 0 0 0 0 
3813814 0 0 0 0 0 0 0 0 
4338102 0 0 0 0 0 0 0 0 
799158 0 0 0 0 0 0 0 0 
1323446 0 0 0 0 0 0 0 0 
1847734 0 0 0 0 0 0 0 0 
2372022 0 0 0 0 0 0 0 0 
2896310 0 0 0 0 0 0 0 0 
3420598 0 0 0 0 0 0 0 0 
3944886 0 0 0 0 0 0 0 0 
4469174 0 0 0 0 0 0 0 0 
606646 0 0 0 0 0 0 0 0 
1130934 0 0 0 0 0 0 0 0 
1655222 0 0 0 0 0 0 0 0 
2179510 0 0 0 0 0 0 0 0 
2703798 0 0 0 0 0 0 0 0 
3228086 0 0 0 0 0 0 0 0 
3752374 0 0 0 0 0 0 0 0 
4276662 0 0 0 0 0 0 0 0 
737718 0 0 0 0 0 0 0 0 
1262006 0 0 0 0 0 0 0 0 
1786294 0 0 0 0 0 0 0 0 
2310582 0 0 0 0 0 0 0 0 
2834870 0 0 0 0 0 0 0 0 
3359158 0 0 0 0 0 0 0 0 
3883446 0 0 0 0 0 0 0 0 
4407734 0 0 0 0 0 0 0 0 
567745 0 0 0 0 0 0 0 0 
1616321 0 0 0 0 0 0 0 0 
2664897 0 0 0 0 0 0 0 0 
3713473 0 0 0 0 0 0 0 0 
633281 0 0 0 0 0 0 0 0 
1681857 0 0 0 0 0 0 0 0 
2730433 0 0 0 0 0 0 0 0 
3779009 0 0 0 0 0 0 0 0 
1747393 0 0 0 0 0 0 0 0 
2795969 0 0 0 0 0 0 0 0 
3844545 0 0 0 0 0 0 0 0 
764353 0 0 0 0 0 0 0 0 
1812929 0 0 0 0 0 0 0 0 
2861505 0 0 0 0 0 0 0 0 
3910081 0 0 0 0 0 0 0 0 
624999 0 0 0 0 0 0 0 0 
1673575 0 0 0 0 0 0 0 0 
563559 0 0 0 0 0 0 0 0 
1612135 0 0 0 0 0 0 0 0 
2660711 0 0 0 0 0 0 0 0 
3709287 0 0 0 0 0 0 0 0 
629095 0 0 0 0 0 0 0 0 
1677671 0 0 0 0 0 0 0 0 
2726247 0 0 0 0 0 0 0 0 
3774823 0 0 0 0 0 0 0 0 
694631 0 0 0 0 0 0 0 0 
2791783 0 0 0 0 0 0 0 0 
3840359 0 0 0 0 0 0 0 0 
1808743 0 0 0 0 0 0 0 0 
2857319 0 0 0 0 0 0 0 0 
559473 0 0 0 0 0 0 0 0 
1608049 0 0 0 0 0 0 0 0 
2656625 0 0 0 0 0 0 0 0 
3705201 0 0 0 0 0 0 0 0 
625009 0 0 0 0 0 0 0 0 
1673585 0 0 0 0 0 0 0 0 
2722161 0 0 0 0 0 0 0 0 
3770737 0 0 0 0 0 0 0 0 
690545 0 0 0 0 0 0 0 0 
1739121 0 0 0 0 0 0 0 0 
3836273 0 0 0 0 0 0 0 0 
756081 0 0 0 0 0 0 0 0 
1804657 0 0 0 0 0 0 0 0 
2853233 0 0 0 0 0 0 0 0 
3901809 0 0 0 0 0 0 0 0 
694641 0 0 0 0 0 0 0 0 
1743217 0 0 0 0 0 0 0 0 
2791793 0 0 0 0 0 0 0 0 
3840369 0 0 0 0 0 0 0 0 
567665 0 0 0 0 0 0 0 0 
2664817 0 0 0 0 0 0 0 0 
3713393 0 0 0 0 0 0 0 0 
633201 0 0 0 0 0 0 0 0 
1681777 0 0 0 0 0 0 0 0 
3778929 0 0 0 0 0 0 0 0 
571761 0 0 0 0 0 0 0 0 
1620337 0 0 0 0 0 0 0 0 
2668913 0 0 0 0 0 0 0 0 
3717489 0 0 0 0 0 0 0 0 
637297 0 0 0 0 0 0 0 0 
1685873 0 0 0 0 0 0 0 0 
2734449 0 0 0 0 0 0 0 0 
3783025 0 0 0 0 0 0 0 0 
702833 0 0 0 0 0 0 0 0 
1751409 0 0 0 0 0 0 0 0 
3848561 0 0 0 0 0 0 0 0 
768369 0 0 0 0 0 0 0 0 
1816945 0 0 0 0 0 0 0 0 
2865521 0 0 0 0 0 0 0 0 
3914097 0 0 0 0 0 0 0 0 
698747 0 0 0 0 0 0 0 0 
1747323 0 0 0 0 0 0 0 0 
2795899 0 0 0 0 0 0 0 0 
3844475 0 0 0 0 0 0 0 0 
563639 0 0 0 0 0 0 0 0 
2660791 0 0 0 0 0 0 0 0 
3709367 0 0 0 0 0 0 0 0 
629175 0 0 0 0 0 0 0 0 
1677751 0 0 0 0 0 0 0 0 
2726327 0 0 0 0 0 0 0 0 
3774903 0 0 0 0 0 0 0 0 
760247 0 0 0 0 0 0 0 0 
1808823 0 0 0 0 0 0 0 0 
2857399 0 0 0 0 0 0 0 0 
559553 0 0 0 0 0 0 0 0 
1608129 0 0 0 0 0 0 0 0 
2656705 0 0 0 0 0 0 0 0 
3705281 0 0 0 0 0 0 0 0 
690625 0 0 0 0 0 0 0 0 
1739201 0 0 0 0 0 0 0 0 
2787777 0 0 0 0 0 0 0 0 
3836353 0 0 0 0 0 0 0 0 
756161 0 0 0 0 0 0 0 0 
1804737 0 0 0 0 0 0 0 0 
2853313 0 0 0 0 0 0 0 0 
3901889 0 0 0 0 0 0 0 0 
567585 0 0 0 0 0 0 0 0 
1616161 0 0 0 0 0 0 0 0 
2664737 0 0 0 0 0 0 0 0 
3713313 0 0 0 0 0 0 0 0 
633121 0 0 0 0 0 0 0 0 
1681697 0 0 0 0 0 0 0 0 
2730273 0 0 0 0 0 0 0 0 
3778849 0 0 0 0 0 0 0 0 
698657 0 0 0 0 0 0 0 0 
1747233 0 0 0 0 0 0 0 0 
2795809 0 0 0 0 0 0 0 0 
3844385 0 0 0 0 0 0 0 0 
764193 0 0 0 0 0 0 0 0 
1812769 0 0 0 0 0 0 0 0 
2861345 0 0 0 0 0 0 0 0 
3909921 0 0 0 0 0 0 0 0 
571681 0 0 0 0 0 0 0 0 
1620257 0 0 0 0 0 0 0 0 
2668833 0 0 0 0 0 0 0 0 
3717409 0 0 0 0 0 0 0 0 
702753 0 0 0 0 0 0 0 0 
1751329 0 0 0 0 0 0 0 0 
2799905 0 0 0 0 0 0 0 0 
3848481 0 0 0 0 0 0 0 0 
768289 0 0 0 0 0 0 0 0 
1816865 0 0 0 0 0 0 0 0 
2865441 0 0 0 0 0 0 0 0 
3914017 0 0 0 0 0 0 0 0 
45344 0 0 0 0 0 0 0 0 
78112 0 0 0 0 0 0 0 0 
110880 0 0 0 0 0 0 0 0 
143648 0 0 0 0 0 0 0 0 
176416 0 0 0 0 0 0 0 0 
209184 0 0 0 0 0 0 0 0 
241952 0 0 0 0 0 0 0 0 
274720 0 0 0 0 0 0 0 0 
594278 0 0 0 0 0 0 0 0 
1118566 0 0 0 0 0 0 0 0 
1642854 0 0 0 0 0 0 0 0 
2167142 0 0 0 0 0 0 0 0 
2691430 0 0 0 0 0 0 0 0 
3215718 0 0 0 0 0 0 0 0 
3740006 0 0 0 0 0 0 0 0 
4264294 0 0 0 0 0 0 0 0 
794982 0 0 0 0 0 0 0 0 
1319270 0 0 0 0 0 0 0 0 
1843558 0 0 0 0 0 0 0 0 
2367846 0 0 0 0 0 0 0 0 
2892134 0 0 0 0 0 0 0 0 
3416422 0 0 0 0 0 0 0 0 
3940710 0 0 0 0 0 0 0 0 
4464998 0 0 0 0 0 0 0 0 
565676 0 0 0 0 0 0 0 0 
1089964 0 0 0 0 0 0 0 0 
1614252 0 0 0 0 0 0 0 0 
2138540 0 0 0 0 0 0 0 0 
2662828 0 0 0 0 0 0 0 0 
3187116 0 0 0 0 0 0 0 0 
3711404 0 0 0 0 0 0 0 0 
4235692 0 0 0 0 0 0 0 0 
762284 0 0 0 0 0 0 0 0 
1286572 0 0 0 0 0 0 0 0 
1810860 0 0 0 0 0 0 0 0 
2335148 0 0 0 0 0 0 0 0 
2859436 0 0 0 0 0 0 0 0 
3383724 0 0 0 0 0 0 0 0 
3908012 0 0 0 0 0 0 0 0 
4432300 0 0 0 0 0 0 0 0 
598454 0 0 0 0 0 0 0 0 
1122742 0 0 0 0 0 0 0 0 
1647030 0 0 0 0 0 0 0 0 
2171318 0 0 0 0 0 0 0 0 
2695606 0 0 0 0 0 0 0 0 
3219894 0 0 0 0 0 0 0 0 
3744182 0 0 0 0 0 0 0 0 
4268470 0 0 0 0 0 0 0 0 
764203 0 0 0 0 0 0 0 0 
1812779 0 0 0 0 0 0 0 0 
2861355 0 0 0 0 0 0 0 0 
3909931 0 0 0 0 0 0 0 0 
47532 0 0 0 0 0 0 0 0 
80300 0 0 0 0 0 0 0 0 
113068 0 0 0 0 0 0 0 0 
145836 0 0 0 0 0 0 0 0 
178604 0 0 0 0 0 0 0 0 
211372 0 0 0 0 0 0 0 0 
244140 0 0 0 0 0 0 0 0 
276908 0 0 0 0 0 0 0 0 
592370 0 0 0 0 0 0 0 0 
1116658 0 0 0 0 0 0 0 0 
1640946 0 0 0 0 0 0 0 0 
2165234 0 0 0 0 0 0 0 0 
2689522 0 0 0 0 0 0 0 0 
3213810 0 0 0 0 0 0 0 0 
3738098 0 0 0 0 0 0 0 0 
4262386 0 0 0 0 0 0 0 0 
723442 0 0 0 0 0 0 0 0 
1247730 0 0 0 0 0 0 0 0 
1772018 0 0 0 0 0 0 0 0 
2296306 0 0 0 0 0 0 0 0 
2820594 0 0 0 0 0 0 0 0 
3344882 0 0 0 0 0 0 0 0 
3869170 0 0 0 0 0 0 0 0 
4393458 0 0 0 0 0 0 0 0 
561660 0 0 0 0 0 0 0 0 
1085948 0 0 0 0 0 0 0 0 
1610236 0 0 0 0 0 0 0 0 
2134524 0 0 0 0 0 0 0 0 
2658812 0 0 0 0 0 0 0 0 
3183100 0 0 0 0 0 0 0 0 
3707388 0 0 0 0 0 0 0 0 
4231676 0 0 0 0 0 0 0 0 
664060 0 0 0 0 0 0 0 0 
1188348 0 0 0 0 0 0 0 0 
1712636 0 0 0 0 0 0 0 0 
2236924 0 0 0 0 0 0 0 0 
2761212 0 0 0 0 0 0 0 0 
3285500 0 0 0 0 0 0 0 0 
3809788 0 0 0 0 0 0 0 0 
4334076 0 0 0 0 0 0 0 0 
795132 0 0 0 0 0 0 0 0 
1843708 0 0 0 0 0 0 0 0 
2367996 0 0 0 0 0 0 0 0 
2892284 0 0 0 0 0 0 0 0 
3416572 0 0 0 0 0 0 0 0 
3940860 0 0 0 0 0 0 0 0 
4465148 0 0 0 0 0 0 0 0 
563719 0 0 0 0 0 0 0 0 
1612295 0 0 0 0 0 0 0 0 
2660871 0 0 0 0 0 0 0 0 
3709447 0 0 0 0 0 0 0 0 
694791 0 0 0 0 0 0 0 0 
1743367 0 0 0 0 0 0 0 0 
2791943 0 0 0 0 0 0 0 0 
3840519 0 0 0 0 0 0 0 0 
700854 0 0 0 0 0 0 0 0 
1225142 0 0 0 0 0 0 0 0 
1749430 0 0 0 0 0 0 0 0 
2273718 0 0 0 0 0 0 0 0 
2798006 0 0 0 0 0 0 0 0 
3846582 0 0 0 0 0 0 0 0 
4370870 0 0 0 0 0 0 0 0 
803254 0 0 0 0 0 0 0 0 
1327542 0 0 0 0 0 0 0 0 
1851830 0 0 0 0 0 0 0 0 
2376118 0 0 0 0 0 0 0 0 
2900406 0 0 0 0 0 0 0 0 
3424694 0 0 0 0 0 0 0 0 
3948982 0 0 0 0 0 0 0 0 
4473270 0 0 0 0 0 0 0 0 
563569 0 0 0 0 0 0 0 0 
1612145 0 0 0 0 0 0 0 0 
2660721 0 0 0 0 0 0 0 0 
3709297 0 0 0 0 0 0 0 0 
760177 0 0 0 0 0 0 0 0 
1808753 0 0 0 0 0 0 0 0 
2857329 0 0 0 0 0 0 0 0 
3905905 0 0 0 0 0 0 0 0 
567675 0 0 0 0 0 0 0 0 
1616251 0 0 0 0 0 0 0 0 
2664827 0 0 0 0 0 0 0 0 
3713403 0 0 0 0 0 0 0 0 
625089 0 0 0 0 0 0 0 0 
1673665 0 0 0 0 0 0 0 0 
2722241 0 0 0 0 0 0 0 0 
3770817 0 0 0 0 0 0 0 0 
690465 0 0 0 0 0 0 0 0 
1739041 0 0 0 0 0 0 0 0 
2787617 0 0 0 0 0 0 0 0 
3836193 0 0 0 0 0 0 0 0 
637217 0 0 0 0 0 0 0 0 
1685793 0 0 0 0 0 0 0 0 
2734369 0 0 0 0 0 0 0 0 
3782945 0 0 0 0 0 0 0 0 
602480 0 0 0 0 0 0 0 0 
1126768 0 0 0 0 0 0 0 0 
1651056 0 0 0 0 0 0 0 0 
2175344 0 0 0 0 0 0 0 0 
2699632 0 0 0 0 0 0 0 0 
3223920 0 0 0 0 0 0 0 0 
3748208 0 0 0 0 0 0 0 0 
4272496 0 0 0 0 0 0 0 0 
733552 0 0 0 0 0 0 0 0 
1257840 0 0 0 0 0 0 0 0 
1782128 0 0 0 0 0 0 0 0 
2306416 0 0 0 0 0 0 0 0 
2830704 0 0 0 0 0 0 0 0 
3879280 0 0 0 0 0 0 0 0 
4403568 0 0 0 0 0 0 0 0 
799088 0 0 0 0 0 0 0 0 
1323376 0 0 0 0 0 0 0 0 
1847664 0 0 0 0 0 0 0 0 
2371952 0 0 0 0 0 0 0 0 
2896240 0 0 0 0 0 0 0 0 
3420528 0 0 0 0 0 0 0 0 
3944816 0 0 0 0 0 0 0 0 
4469104 0 0 0 0 0 0 0 0 
2426 0 0 0 0 0 0 0 0 
4474 0 0 0 0 0 0 0 0 
6522 0 0 0 0 0 0 0 0 
8570 0 0 0 0 0 0 0 0 
10618 0 0 0 0 0 0 0 0 
12666 0 0 0 0 0 0 0 0 
14714 0 0 0 0 0 0 0 0 
16762 0 0 0 0 0 0 0 0 
2346 0 0 0 0 0 0 0 0 
4394 0 0 0 0 0 0 0 0 
6442 0 0 0 0 0 0 0 0 
8490 0 0 0 0 0 0 0 0 
10538 0 0 0 0 0 0 0 0 
12586 0 0 0 0 0 0 0 0 
14634 0 0 0 0 0 0 0 0 
16682 0 0 0 0 0 0 0 0 
37312 0 0 0 0 0 0 0 0 
70080 0 0 0 0 0 0 0 0 
102848 0 0 0 0 0 0 0 0 
135616 0 0 0 0 0 0 0 0 
168384 0 0 0 0 0 0 0 0 
201152 0 0 0 0 0 0 0 0 
233920 0 0 0 0 0 0 0 0 
266688 0 0 0 0 0 0 0 0 
659814 0 0 0 0 0 0 0 0 
1184102 0 0 0 0 0 0 0 0 
1708390 0 0 0 0 0 0 0 0 
2232678 0 0 0 0 0 0 0 0 
2756966 0 0 0 0 0 0 0 0 
3281254 0 0 0 0 0 0 0 0 
3805542 0 0 0 0 0 0 0 0 
4329830 0 0 0 0 0 0 0 0 
700774 0 0 0 0 0 0 0 0 
1225062 0 0 0 0 0 0 0 0 
1749350 0 0 0 0 0 0 0 0 
2273638 0 0 0 0 0 0 0 0 
2797926 0 0 0 0 0 0 0 0 
3322214 0 0 0 0 0 0 0 0 
3846502 0 0 0 0 0 0 0 0 
4370790 0 0 0 0 0 0 0 0 
692732 0 0 0 0 0 0 0 0 
1217020 0 0 0 0 0 0 0 0 
1741308 0 0 0 0 0 0 0 0 
2265596 0 0 0 0 0 0 0 0 
2789884 0 0 0 0 0 0 0 0 
3314172 0 0 0 0 0 0 0 0 
3838460 0 0 0 0 0 0 0 0 
4362748 0 0 0 0 0 0 0 0 
571841 0 0 0 0 0 0 0 0 
1620417 0 0 0 0 0 0 0 0 
2668993 0 0 0 0 0 0 0 0 
3717569 0 0 0 0 0 0 0 0 
702913 0 0 0 0 0 0 0 0 
1751489 0 0 0 0 0 0 0 0 
2800065 0 0 0 0 0 0 0 0 
3848641 0 0 0 0 0 0 0 0 
569782 0 0 0 0 0 0 0 0 
1094070 0 0 0 0 0 0 0 0 
1618358 0 0 0 0 0 0 0 0 
2142646 0 0 0 0 0 0 0 0 
2666934 0 0 0 0 0 0 0 0 
3191222 0 0 0 0 0 0 0 0 
3715510 0 0 0 0 0 0 0 0 
4239798 0 0 0 0 0 0 0 0 
672182 0 0 0 0 0 0 0 0 
1196470 0 0 0 0 0 0 0 0 
1720758 0 0 0 0 0 0 0 0 
2245046 0 0 0 0 0 0 0 0 
2769334 0 0 0 0 0 0 0 0 
3293622 0 0 0 0 0 0 0 0 
3817910 0 0 0 0 0 0 0 0 
4342198 0 0 0 0 0 0 0 0 
764283 0 0 0 0 0 0 0 0 
1812859 0 0 0 0 0 0 0 0 
2861435 0 0 0 0 0 0 0 0 
3910011 0 0 0 0 0 0 0 0 
731564 0 0 0 0 0 0 0 0 
1255852 0 0 0 0 0 0 0 0 
1780140 0 0 0 0 0 0 0 0 
2304428 0 0 0 0 0 0 0 0 
2828716 0 0 0 0 0 0 0 0 
3353004 0 0 0 0 0 0 0 0 
3877292 0 0 0 0 0 0 0 0 
4401580 0 0 0 0 0 0 0 0 
756001 0 0 0 0 0 0 0 0 
1804577 0 0 0 0 0 0 0 0 
2853153 0 0 0 0 0 0 0 0 
3901729 0 0 0 0 0 0 0 0 
43397 0 0 0 0 0 0 0 0 
108933 0 0 0 0 0 0 0 0 
174469 0 0 0 0 0 0 0 0 
240005 0 0 0 0 0 0 0 0 
170423 0 0 0 0 0 0 0 0 
39361 0 0 0 0 0 0 0 0 