ITEM: TIMESTEP
13000
ITEM: NUMBER OF SURFS
20883
ITEM: BOX BOUNDS oo ro oo
-2.505 0.895
0 2.5
-2.5 2.5
ITEM: SURFS id f_3[1] f_3[2] f_3[3] f_3[4] f_3[5] f_3[6] 
1 1.0887 2666.08 0.034 0 0.001 0.033 
9 1.28019 3339.2 0.0146667 0 0.001 0.0136667 
17 0.951527 3089.23 0.002 0 0.000333333 0.00166667 
25 0 0 0 0 0 0 
33 0 0 0 0 0 0 
41 0 0 0 0 0 0 
49 0 0 0 0 0 0 
57 0 0 0 0 0 0 
65 0 0 0 0 0 0 
73 0 0 0 0 0 0 
81 0 0 0 0 0 0 
89 0 0 0 0 0 0 
97 0 0 0 0 0 0 
105 0.175675 14.4997 0.000333333 0 0 0.000333333 
113 2.54425 7252.61 0.001 0 0.000333333 0.000666667 
121 0 0 0 0 0 0 
129 0 0 0 0 0 0 
137 0 0 0 0 0 0 
145 0 0 0 0 0 0 
153 1.96574 3699.13 0.00133333 0 0 0.00133333 
161 1.15536 3158.52 0.00233333 0 0 0.00233333 
169 1.08747 2451.96 0.007 0 0 0.007 
177 1.85391 4114.33 0.0406667 0 0.001 0.0396667 
185 0 0 0 0 0 0 
193 1.12815 2953.04 4.48567 0 0.172667 4.313 
201 1.13593 3054.33 4.072 0 0.17 3.902 
209 1.14806 3176.02 3.46633 0 0.143 3.32333 
217 1.37865 3679.93 3.131 0 0.131667 2.99933 
225 1.60617 4057.4 2.78967 0 0.102333 2.68733 
233 1.67728 4084.42 4.09567 0 0.145 3.95067 
241 1.72344 4030.29 5.28233 0 0.196333 5.086 
249 1.73457 3998.51 6.307 0 0.22 6.087 
257 1.04588 2691.24 4.29467 0 0.175333 4.11933 
265 1.06731 2814.82 3.97133 0 0.149333 3.822 
273 1.07446 2946.19 3.272 0 0.137333 3.13467 
281 1.25062 3307.1 2.91833 0 0.100667 2.81767 
289 1.44138 3650.75 2.61 0 0.107667 2.50233 
297 1.50147 3676.45 3.76133 0 0.143 3.61833 
305 1.55297 3638.36 4.93033 0 0.178333 4.752 
313 1.58192 3635 5.905 0 0.213667 5.69133 
321 1.01845 2634.76 4.169 0 0.168667 4.00033 
329 0.99577 2632.61 3.729 0 0.136667 3.59233 
337 1.02519 2795.01 3.13333 0 0.127 3.00633 
345 1.17752 3137.49 2.8 0 0.111667 2.68833 
353 1.33456 3391.14 2.47833 0 0.0906667 2.38767 
361 1.4358 3523.04 3.58033 0 0.142333 3.438 
369 1.47515 3483.57 4.752 0 0.176 4.576 
377 1.48036 3377.25 5.608 0 0.214 5.394 
385 0.980231 2522.5 4.01867 0 0.152667 3.866 
393 0.973126 2596 3.582 0 0.153333 3.42867 
401 0.989718 2693.61 3.03267 0 0.124 2.90867 
409 1.1319 3026.02 2.65133 0 0.110333 2.541 
417 1.24774 3168.44 2.37167 0 0.089 2.28267 
425 1.38782 3432.09 3.46267 0 0.137333 3.32533 
433 1.43697 3371.05 4.66633 0 0.178667 4.48767 
441 1.45557 3324.25 5.493 0 0.198667 5.29433 
449 0.973281 2504.23 4.01033 0 0.155 3.85533 
457 0.949026 2483.37 3.50333 0 0.138 3.36533 
465 0.97416 2638.69 2.99267 0 0.116667 2.876 
473 1.13328 3038.27 2.594 0 0.105667 2.48833 
481 1.26642 3228.92 2.37433 0 0.091 2.28333 
489 1.32179 3257.21 3.30367 0 0.124 3.17967 
497 1.41876 3356.65 4.50633 0 0.178667 4.32767 
505 1.41624 3284.33 5.242 0 0.194667 5.04733 
513 0.948905 2431.77 3.894 0 0.142333 3.75167 
521 0.968817 2524.34 3.52433 0 0.130667 3.39367 
529 0.977718 2627.06 2.97567 0 0.111333 2.86433 
537 1.11237 3022.98 2.53733 0 0.0933333 2.444 
545 1.20672 3070.16 2.29833 0 0.0946667 2.20367 
553 1.33205 3294.88 3.30033 0 0.125333 3.175 
561 1.37405 3246.34 4.337 0 0.146 4.191 
569 1.39786 3236.84 5.131 0 0.185 4.946 
577 0.946733 2422.27 3.796 0 0.132 3.664 
585 0.949919 2489.99 3.45233 0 0.149667 3.30267 
593 0.986625 2628.46 2.93267 0 0.105667 2.827 
601 1.08185 2899.56 2.524 0 0.103 2.421 
609 1.19643 3090.29 2.28467 0 0.0953333 2.18933 
617 1.28526 3151.54 3.239 0 0.125 3.114 
625 1.35191 3205.37 4.191 0 0.147667 4.04333 
633 1.38269 3173.02 5.047 0 0.18 4.867 
641 0.951151 2438.78 3.81933 0 0.152 3.66733 
649 0.941002 2461.49 3.31933 0 0.131333 3.188 
657 0.97916 2605.84 2.88833 0 0.114 2.77433 
665 1.0074 2648.07 2.40933 0 0.088 2.32133 
673 1.15008 2959.38 2.24267 0 0.0793333 2.16333 
681 1.24063 3050.98 3.198 0 0.116333 3.08167 
689 1.3331 3146.26 4.148 0 0.153 3.995 
697 1.34717 3105.01 4.91533 0 0.173333 4.742 
705 0.96463 2485.81 3.78033 0 0.131 3.64933 
713 1.0437 2819.5 3.479 0 0.138333 3.34067 
721 1.01663 2713.79 2.99667 0 0.114 2.88267 
729 1.09794 2926.86 2.60433 0 0.099 2.50533 
737 1.22376 3143.66 2.37 0 0.0896667 2.28033 
745 1.27933 3158.01 3.19033 0 0.114667 3.07567 
753 1.34669 3177.44 4.12867 0 0.148333 3.98033 
761 1.36257 3140.48 4.88167 0 0.181667 4.7 
769 0.967031 2501.1 3.78233 0 0.140667 3.64167 
777 0.997971 2670.75 3.32767 0 0.124 3.20367 
785 0.985575 2572.44 2.95133 0 0.110667 2.84067 
793 1.07667 2803.52 2.58333 0 0.101 2.48233 
801 1.17657 3036.24 2.32033 0 0.09 2.23033 
809 1.27752 3141.58 3.237 0 0.110667 3.12633 
817 1.3335 3195.51 4.06367 0 0.148333 3.91533 
825 1.32062 3047.52 4.70467 0 0.177667 4.527 
833 0.964771 2470.01 3.754 0 0.131 3.623 
841 0.983184 2580.31 3.305 0 0.136 3.169 
849 1.01536 2661.12 2.99633 0 0.122333 2.874 
857 1.04583 2706.23 2.52867 0 0.093 2.43567 
865 1.15752 2962.39 2.31833 0 0.0926667 2.22567 
873 1.20234 2991.65 3.026 0 0.123 2.903 
881 1.32389 3157.81 4.006 0 0.133667 3.87233 
889 1.32917 3082.65 4.652 0 0.185 4.467 
897 0.975246 2517.38 3.69533 0 0.145 3.55033 
905 0.976569 2563.97 3.236 0 0.112 3.124 
913 0.988195 2551.89 2.91 0 0.117667 2.79233 
921 1.0642 2744.65 2.57667 0 0.101333 2.47533 
929 1.10917 2806.22 2.29 0 0.0833333 2.20667 
937 1.19453 2909.63 3.05567 0 0.126333 2.92933 
945 1.2892 3051.74 3.84233 0 0.133 3.70933 
953 1.29781 3000.21 4.47867 0 0.164 4.31467 
961 0.988431 2540.24 3.66767 0 0.134667 3.533 
969 0.981645 2529.12 3.21933 0 0.133667 3.08567 
977 0.991514 2563.89 2.86833 0 0.111333 2.757 
985 1.08715 2786.47 2.59933 0 0.103667 2.49567 
993 1.15451 2899.62 2.324 0 0.0933333 2.23067 
1001 1.20031 2935.23 3.013 0 0.109 2.904 
1009 1.27706 3003.58 3.77233 0 0.141667 3.63067 
1017 1.33975 3121.52 4.49 0 0.167333 4.32267 
1025 0.982961 2512.3 3.61667 0 0.124333 3.49233 
1033 0.947974 2435.24 3.11 0 0.119667 2.99033 
1041 0.992146 2531.49 2.82733 0 0.117667 2.70967 
1049 1.06957 2726.73 2.60967 0 0.0876667 2.522 
1057 1.1482 2862.71 2.394 0 0.09 2.304 
1065 1.19947 2923.61 3.039 0 0.112333 2.92667 
1073 1.27513 3030.8 3.72433 0 0.137333 3.587 
1081 1.33276 3124.74 4.326 0 0.159333 4.16667 
1089 0.981651 2481.29 3.56267 0 0.121333 3.44133 
1097 0.951885 2411.61 3.05633 0 0.106667 2.94967 
1105 1.00287 2563.21 2.777 0 0.0956667 2.68133 
1113 1.05875 2663.14 2.61367 0 0.092 2.52167 
1121 1.13294 2846.05 2.36133 0 0.0813333 2.28 
1129 1.16399 2848.06 2.91333 0 0.110333 2.803 
1137 1.24381 2964.87 3.51767 0 0.126667 3.391 
1145 1.28849 2998.19 4.18467 0 0.156333 4.02833 
1153 0.990634 2487.5 3.52067 0 0.135 3.38567 
1161 0.953334 2415.99 2.98633 0 0.110667 2.87567 
1169 0.99599 2549.91 2.76833 0 0.105 2.66333 
1177 1.07468 2712.14 2.62767 0 0.0983333 2.52933 
1185 1.11282 2755.24 2.382 0 0.101667 2.28033 
1193 1.15999 2792.38 2.937 0 0.113667 2.82333 
1201 1.24205 2947.71 3.513 0 0.137333 3.37567 
1209 1.2669 2901.71 4.03267 0 0.154333 3.87833 
1217 0.973649 2443.67 3.37967 0 0.130333 3.24933 
1225 1.02579 2658.61 2.98533 0 0.104667 2.88067 
1233 1.04284 2703.8 2.80133 0 0.110667 2.69067 
1241 1.06571 2673.51 2.57767 0 0.0936667 2.484 
1249 1.1062 2735.99 2.35967 0 0.0933333 2.26633 
1257 1.19955 2931.84 2.935 0 0.105667 2.82933 
1265 1.22956 2856.89 3.467 0 0.122333 3.34467 
1273 1.30889 3078.1 3.89067 0 0.130333 3.76033 
1281 0.969875 2444.6 3.32 0 0.117 3.203 
1289 1.03958 2675.33 2.982 0 0.109667 2.87233 
1297 1.08093 2760.01 2.815 0 0.101 2.714 
1305 1.10658 2779.9 2.62733 0 0.0946667 2.53267 
1313 1.1419 2847.52 2.39533 0 0.097 2.29833 
1321 1.22589 3006.42 2.96533 0 0.111667 2.85367 
1329 1.26735 3000.78 3.45633 0 0.130333 3.326 
1337 1.28486 3022.51 3.75367 0 0.131333 3.62233 
1345 0.984532 2487.81 3.25467 0 0.118667 3.136 
1353 1.0457 2716.67 2.88933 0 0.103333 2.786 
1361 1.07483 2730.62 2.82433 0 0.105333 2.719 
1369 1.09442 2749.98 2.63267 0 0.104 2.52867 
1377 1.17507 2893.4 2.47933 0 0.0943333 2.385 
1385 1.17568 2857.79 2.933 0 0.108667 2.82433 
1393 1.18614 2804.05 3.21333 0 0.127667 3.08567 
1401 1.28941 2996.48 3.66533 0 0.131667 3.53367 
1409 0.981616 2462.7 3.144 0 0.114333 3.02967 
1417 1.03078 2628.62 2.84867 0 0.105 2.74367 
1425 1.05421 2633.22 2.76533 0 0.0956667 2.66967 
1433 1.06734 2618.05 2.602 0 0.0966667 2.50533 
1441 1.11805 2738.39 2.446 0 0.0933333 2.35267 
1449 1.17414 2787.61 2.92333 0 0.107667 2.81567 
1457 1.24571 2961.47 3.31133 0 0.123333 3.188 
1465 1.27883 2966.74 3.56033 0 0.125333 3.435 
1473 0.973558 2466.21 3.042 0 0.106 2.936 
1481 1.02677 2596.85 2.75733 0 0.109333 2.648 
1489 1.01004 2501.66 2.64333 0 0.110333 2.533 
1497 1.06972 2623.23 2.57767 0 0.0826667 2.495 
1505 1.12255 2723.02 2.47733 0 0.0856667 2.39167 
1513 1.13263 2705.34 2.79733 0 0.101333 2.696 
1521 1.18034 2777.54 3.08733 0 0.113 2.97433 
1529 1.23021 2852.7 3.362 0 0.118333 3.24367 
1537 0.972793 2443.51 2.92333 0 0.104333 2.819 
1545 1.00963 2565.54 2.60733 0 0.093 2.51433 
1553 1.07251 2670.52 2.64167 0 0.088 2.55367 
1561 1.10734 2737.34 2.66067 0 0.099 2.56167 
1569 1.17093 2853.25 2.54833 0 0.0973333 2.451 
1577 1.17589 2815.02 2.84533 0 0.107 2.73833 
1585 1.21057 2886.37 3.003 0 0.117333 2.88567 
1593 1.26948 2945.5 3.30033 0 0.125333 3.175 
1601 0.93872 2327.19 2.75567 0 0.111333 2.64433 
1609 0.991673 2487.69 2.52067 0 0.0976667 2.423 
1617 1.0458 2589.61 2.61933 0 0.0906667 2.52867 
1625 1.06222 2596.65 2.56233 0 0.0953333 2.467 
1633 1.13586 2733.56 2.57167 0 0.1 2.47167 
1641 1.12241 2677.13 2.759 0 0.102333 2.65667 
1649 1.17572 2765.32 2.932 0 0.101333 2.83067 
1657 1.21164 2815.38 3.124 0 0.101667 3.02233 
1665 0.923369 2277.99 2.598 0 0.107 2.491 
1673 1.02945 2555.77 2.532 0 0.103333 2.42867 
1681 1.02857 2532.89 2.55367 0 0.0956667 2.458 
1689 1.05692 2604.99 2.51767 0 0.099 2.41867 
1697 1.09967 2714.96 2.463 0 0.093 2.37 
1705 1.14829 2763.7 2.74567 0 0.092 2.65367 
1713 1.16518 2746.96 2.88033 0 0.112 2.76833 
1721 1.22736 2846.58 3.013 0 0.111 2.902 
1729 0.987781 2444.02 2.553 0 0.0916667 2.46133 
1737 0.983006 2475.26 2.287 0 0.0903333 2.19667 
1745 1.03194 2522.13 2.542 0 0.0973333 2.44467 
1753 1.04139 2508.14 2.566 0 0.100333 2.46567 
1761 1.09627 2630.67 2.53367 0 0.0956667 2.438 
1769 1.14779 2728.77 2.79733 0 0.102 2.69533 
1777 1.17724 2745.67 2.80933 0 0.103333 2.706 
1785 1.21743 2863.08 2.82433 0 0.104 2.72033 
1793 1.02395 2582.62 2.38667 0 0.093 2.29367 
1801 1.03883 2604.11 2.27067 0 0.0806667 2.19 
1809 1.07398 2664.34 2.52533 0 0.098 2.42733 
1817 1.11558 2732.98 2.66667 0 0.101 2.56567 
1825 1.21175 2966.09 2.70933 0 0.0966667 2.61267 
1833 1.19419 2891.69 2.806 0 0.11 2.696 
1841 1.23038 2939.77 2.87567 0 0.102667 2.773 
1849 1.24758 2984.51 2.68067 0 0.0993333 2.58133 
1857 1.01184 2535.8 2.25367 0 0.092 2.16167 
1865 1.04011 2586.42 2.16867 0 0.0773333 2.09133 
1873 1.07581 2637.25 2.519 0 0.0933333 2.42567 
1881 1.12045 2766.47 2.69633 0 0.0953333 2.601 
1889 1.15017 2799.45 2.66467 0 0.098 2.56667 
1897 1.19679 2888.19 2.81167 0 0.116 2.69567 
1905 1.23107 2911.81 2.83533 0 0.108333 2.727 
1913 1.24831 2936.22 2.60033 0 0.095 2.50533 
1921 0.999939 2478.29 2.05633 0 0.0703333 1.986 
1929 1.01554 2523.05 2.08033 0 0.0716667 2.00867 
1937 1.08612 2689.01 2.468 0 0.0893333 2.37867 
1945 1.09757 2690.18 2.672 0 0.0926667 2.57933 
1953 1.15094 2762.9 2.76133 0 0.0973333 2.664 
1961 1.1704 2780.45 2.875 0 0.100333 2.77467 
1969 1.21513 2893.65 2.73333 0 0.100667 2.63267 
1977 1.25695 2939.83 2.472 0 0.0913333 2.38067 
1985 1.00298 2509.64 1.81633 0 0.0726667 1.74367 
1993 1.02759 2527.76 2.04833 0 0.0613333 1.987 
2001 1.04106 2572.52 2.41567 0 0.092 2.32367 
2009 1.10308 2724.36 2.717 0 0.099 2.618 
2017 1.13288 2727.15 2.78867 0 0.101667 2.687 
2025 1.16152 2779.49 2.836 0 0.104 2.732 
2033 1.19638 2861.51 2.70133 0 0.096 2.60533 
2041 1.25799 2937.8 2.36067 0 0.089 2.27167 
2049 0.987273 2442.73 1.50367 0 0.059 1.44467 
2057 0.984044 2422.25 1.91733 0 0.0846667 1.83267 
2065 1.07177 2659.04 2.45267 0 0.0896667 2.363 
2073 1.06383 2567.69 2.67133 0 0.0973333 2.574 
2081 1.11466 2711.81 2.76167 0 0.102667 2.659 
2089 1.12121 2644.86 2.82567 0 0.097 2.72867 
2097 1.17454 2756.82 2.678 0 0.0913333 2.58667 
2105 1.16695 2733.37 2.12033 0 0.074 2.04633 
2113 0.984662 2416.09 1.13733 0 0.0476667 1.08967 
2121 1.03719 2561.14 1.95633 0 0.0676667 1.88867 
2129 1.06023 2626.74 2.54667 0 0.089 2.45767 
2137 1.07348 2609.98 2.85333 0 0.1 2.75333 
2145 1.08707 2601.32 2.89467 0 0.105667 2.789 
2153 1.11882 2660.82 2.94167 0 0.101667 2.84 
2161 1.16659 2791.62 2.65633 0 0.104667 2.55167 
2169 1.22457 2873.85 2.15533 0 0.086 2.06933 
2177 1.02299 2605.83 0.636 0 0.0196667 0.616333 
2185 0.999985 2455.13 2.12867 0 0.077 2.05167 
2193 1.0486 2560.84 2.86533 0 0.109667 2.75567 
2201 1.0223 2464.23 3.12133 0 0.121 3.00033 
2209 1.07206 2564.31 3.29467 0 0.126 3.16867 
2217 1.10656 2607.93 3.241 0 0.11 3.131 
2225 1.15196 2720.11 3.04 0 0.111 2.929 
2233 1.17075 2769.9 2.33733 0 0.0813333 2.256 
2241 0 0 0 0 0 0 
2249 0.000439881 0.957145 0.000333333 0 0 0.000333333 
2257 0.00373471 7.41301 0.00166667 0 0 0.00166667 
2265 0.00276386 12.5626 0.002 0 0 0.002 
2273 0.0125607 38.7646 0.007 0 0.000333333 0.00666667 
2281 0.00777738 30.5179 0.00466667 0 0.000333333 0.00433333 
2289 0.0238318 93.6804 0.011 0 0.000666667 0.0103333 
2297 0.0307791 125.319 0.013 0 0.000666667 0.0123333 
2305 0.051215 244.607 0.0196667 0 0.00133333 0.0183333 
2313 0.112688 554.082 0.0426667 0 0.002 0.0406667 
2321 0.188593 950.065 0.0623333 0 0.00133333 0.061 
2329 0.256081 1199.33 0.0763333 0 0.00366667 0.0726667 
2337 0.35943 1460.32 0.104333 0 0.003 0.101333 
2345 0.564396 2073.48 0.144667 0 0.00766667 0.137 
2353 0.724585 2353.96 0.176667 0 0.00733333 0.169333 
2361 0.835918 2562 0.208 0 0.00766667 0.200333 
2369 0.864807 2415.6 0.236 0 0.00933333 0.226667 
2377 0.922514 2494.96 0.478 0 0.0213333 0.456667 
2385 0.969099 2614.78 0.876333 0 0.032 0.844333 
2393 1.03936 2763.25 1.60667 0 0.0636667 1.543 
2401 1.0991 2940.13 2.56133 0 0.101 2.46033 
2409 1.04095 2703.11 3.47733 0 0.142 3.33533 
2417 1.09055 2769.16 4.44067 0 0.180333 4.26033 
2425 1.12099 2928.25 4.69167 0 0.186 4.50567 
2433 0.00349338 8.92149 0.000666667 0 0.000333333 0.000333333 
2441 0.000310182 -0.28199 0.000333333 0 0.000333333 0 
2449 0.0028384 14.7456 0.00166667 0 0 0.00166667 
2457 0.00519374 17.8378 0.00266667 0 0 0.00266667 
2465 0.00508747 18.7269 0.00333333 0 0 0.00333333 
2473 0.0156127 71.9769 0.009 0 0 0.009 
2481 0.0160765 57.6524 0.007 0 0.000666667 0.00633333 
2489 0.0350698 144.025 0.0146667 0 0.00166667 0.013 
2497 0.0496581 152.693 0.0203333 0 0.000666667 0.0196667 
2505 0.109374 536.909 0.0423333 0 0.002 0.0403333 
2513 0.190842 868.048 0.0616667 0 0.002 0.0596667 
2521 0.274614 1128.95 0.084 0 0.002 0.082 
2529 0.385597 1462.45 0.111 0 0.006 0.105 
2537 0.573302 2014.36 0.154 0 0.00333333 0.150667 
2545 0.682094 2086.15 0.181 0 0.00633333 0.174667 
2553 0.820711 2334.65 0.214 0 0.008 0.206 
2561 0.789526 2140.92 0.232667 0 0.00733333 0.225333 
2569 0.861437 2455.58 0.453 0 0.018 0.435 
2577 0.875703 2348.35 0.821667 0 0.027 0.794667 
2585 0.913495 2436.96 1.43167 0 0.051 1.38067 
2593 1.0161 2702.21 2.36633 0 0.085 2.28133 
2601 0.985838 2492.18 3.322 0 0.135667 3.18633 
2609 1.00881 2541.44 4.20533 0 0.159 4.04633 
2617 1.04128 2671.18 4.46633 0 0.175 4.29133 
2625 0.00107234 0.105425 0.000333333 0 0 0.000333333 
2633 0.000835179 2.15126 0.000666667 0 0.000333333 0.000333333 
2641 0.00153681 6.47699 0.001 0 0 0.001 
2649 0.00400254 11.8609 0.00266667 0 0.000333333 0.00233333 
2657 0.00950576 37.3172 0.00466667 0 0 0.00466667 
2665 0.0153342 48.6845 0.008 0 0.000666667 0.00733333 
2673 0.0156292 63.8819 0.00666667 0 0 0.00666667 
2681 0.0365584 155.351 0.016 0 0.001 0.015 
2689 0.0659526 256.23 0.0283333 0 0.00166667 0.0266667 
2697 0.100861 498.656 0.0416667 0 0.00266667 0.039 
2705 0.173572 839.107 0.0606667 0 0.002 0.0586667 
2713 0.273299 1043 0.0866667 0 0.004 0.0826667 
2721 0.38743 1459.67 0.114 0 0.00366667 0.110333 
2729 0.563499 1968.13 0.153667 0 0.00533333 0.148333 
2737 0.709065 2224.59 0.196667 0 0.008 0.188667 
2745 0.776211 2165.99 0.228667 0 0.00866667 0.22 
2753 0.822158 2258.18 0.250333 0 0.009 0.241333 
2761 0.84195 2326.58 0.450667 0 0.015 0.435667 
2769 0.887529 2437.02 0.806667 0 0.0263333 0.780333 
2777 0.900003 2357.13 1.435 0 0.0506667 1.38433 
2785 0.97638 2585.09 2.26767 0 0.068 2.19967 
2793 0.946559 2389.48 3.20167 0 0.132667 3.069 
2801 0.951338 2371.14 3.98733 0 0.149 3.83833 
2809 0.998478 2525.97 4.34233 0 0.159 4.18333 
2817 0.00211876 5.10554 0.000666667 0 0 0.000666667 
2825 0.0012931 3.47186 0.000333333 0 0 0.000333333 
2833 0.00328621 10.6361 0.002 0 0.000333333 0.00166667 
2841 0.00208817 7.0027 0.00133333 0 0 0.00133333 
2849 0.0129661 61.0029 0.00733333 0 0 0.00733333 
2857 0.015532 54.6103 0.008 0 0.000666667 0.00733333 
2865 0.0171529 69.0993 0.00833333 0 0.000666667 0.00766667 
2873 0.0350594 138.639 0.0156667 0 0.00133333 0.0143333 
2881 0.0479757 201.836 0.0193333 0 0.00133333 0.018 
2889 0.100186 527.453 0.041 0 0.001 0.04 
2897 0.173343 785.894 0.062 0 0.00233333 0.0596667 
2905 0.291963 1246.19 0.091 0 0.00233333 0.0886667 
2913 0.406546 1461.69 0.125667 0 0.00566667 0.12 
2921 0.494413 1645.76 0.143333 0 0.006 0.137333 
2929 0.695495 2073.88 0.189333 0 0.00766667 0.181667 
2937 0.719926 1973.65 0.224667 0 0.0106667 0.214 
2945 0.824448 2321.09 0.261333 0 0.00833333 0.253 
2953 0.853498 2296.62 0.463 0 0.014 0.449 
2961 0.842101 2253.42 0.778667 0 0.0313333 0.747333 
2969 0.910001 2380.79 1.40033 0 0.0536667 1.34667 
2977 0.984966 2618.47 2.235 0 0.0886667 2.14633 
2985 0.907872 2301.82 3.05833 0 0.116 2.94233 
2993 0.927497 2324.1 3.89067 0 0.148333 3.74233 
3001 0.968288 2460.13 4.244 0 0.155667 4.08833 
3009 0 0 0 0 0 0 
3017 0.000516928 1.19703 0.000333333 0 0 0.000333333 
3025 0.00157576 5.24011 0.00133333 0 0.000333333 0.001 
3033 0.00295165 10.7785 0.002 0 0 0.002 
3041 0.00303485 11.9673 0.002 0 0.000333333 0.00166667 
3049 0.0176428 64.9191 0.00866667 0 0.000333333 0.00833333 
3057 0.0247587 85.5714 0.0116667 0 0.00133333 0.0103333 
3065 0.0309377 110.343 0.0133333 0 0 0.0133333 
3073 0.0589959 251.28 0.0243333 0 0.00166667 0.0226667 
3081 0.0993224 545.863 0.0376667 0 0.00133333 0.0363333 
3089 0.149796 684.914 0.0553333 0 0.00266667 0.0526667 
3097 0.245741 1081.62 0.079 0 0.003 0.076 
3105 0.363479 1340.99 0.115 0 0.00333333 0.111667 
3113 0.519558 1719.28 0.149667 0 0.00633333 0.143333 
3121 0.558685 1658.89 0.171333 0 0.00833333 0.163 
3129 0.819329 2319.45 0.246667 0 0.00766667 0.239 
3137 0.898799 2440.71 0.273 0 0.008 0.265 
3145 0.77075 2069.33 0.429 0 0.016 0.413 
3153 0.837761 2228.71 0.788333 0 0.028 0.760333 
3161 0.870252 2294.95 1.35433 0 0.0546667 1.29967 
3169 0.944883 2471.64 2.147 0 0.0873333 2.05967 
3177 0.901554 2276.52 3.04 0 0.105333 2.93467 
3185 0.904476 2261.65 3.80467 0 0.141667 3.663 
3193 0.96031 2447.87 4.17233 0 0.155 4.01733 
3201 0 0 0 0 0 0 
3209 0.000796207 0.580079 0.000333333 0 0 0.000333333 
3217 0.00429907 14.0618 0.00233333 0 0 0.00233333 
3225 0.00250507 10.9288 0.00166667 0 0 0.00166667 
3233 0.00804967 25.2693 0.00466667 0 0.000666667 0.004 
3241 0.0097106 41.2192 0.00533333 0 0 0.00533333 
3249 0.0142067 72.3024 0.00666667 0 0 0.00666667 
3257 0.0452989 177.742 0.0193333 0 0.000666667 0.0186667 
3265 0.0505286 245.411 0.023 0 0.000666667 0.0223333 
3273 0.109884 522.147 0.0426667 0 0.002 0.0406667 
3281 0.160526 714.834 0.0583333 0 0.00433333 0.054 
3289 0.246235 977.443 0.0793333 0 0.001 0.0783333 
3297 0.353765 1321.81 0.113667 0 0.00566667 0.108 
3305 0.542306 1823.74 0.161 0 0.00533333 0.155667 
3313 0.675779 1982.77 0.21 0 0.01 0.2 
3321 0.817299 2299.13 0.245 0 0.00966667 0.235333 
3329 0.870939 2416.07 0.273 0 0.00933333 0.263667 
3337 0.825162 2260.59 0.448667 0 0.018 0.430667 
3345 0.862585 2293.1 0.805333 0 0.026 0.779333 
3353 0.895383 2370.7 1.346 0 0.049 1.297 
3361 0.933408 2442.95 2.10933 0 0.073 2.03633 
3369 0.904431 2291.11 3.01233 0 0.117667 2.89467 
3377 0.908495 2269.57 3.78567 0 0.15 3.63567 
3385 0.959369 2452.77 4.14633 0 0.173333 3.973 
3393 0 0 0 0 0 0 
3401 0.000282299 0.105426 0.000333333 0 0 0.000333333 
3409 0.00307851 8.9646 0.002 0 0.000333333 0.00166667 
3417 0.00323995 20.351 0.002 0 0 0.002 
3425 0.00906086 41.1771 0.00433333 0 0 0.00433333 
3433 0.0128166 34.3835 0.00666667 0 0.000666667 0.006 
3441 0.014438 60.1958 0.00733333 0 0.000333333 0.007 
3449 0.0305147 127.12 0.0146667 0 0.000333333 0.0143333 
3457 0.0627774 291.015 0.0273333 0 0.00166667 0.0256667 
3465 0.128946 581.664 0.0516667 0 0.002 0.0496667 
3473 0.178931 701.888 0.0666667 0 0.00266667 0.064 
3481 0.245249 975.602 0.082 0 0.00166667 0.0803333 
3489 0.372567 1251.95 0.122 0 0.00566667 0.116333 
3497 0.501293 1620.89 0.15 0 0.00433333 0.145667 
3505 0.703527 2006.57 0.216667 0 0.00733333 0.209333 
3513 0.804198 2261.39 0.253 0 0.00733333 0.245667 
3521 0.835186 2289.98 0.252 0 0.012 0.24 
3529 0.773811 2095.11 0.435333 0 0.0156667 0.419667 
3537 0.846439 2282.43 0.783667 0 0.023 0.760667 
3545 0.870073 2312.58 1.348 0 0.0473333 1.30067 
3553 0.897145 2364.11 2.01533 0 0.083 1.93233 
3561 0.888526 2254.06 2.949 0 0.11 2.839 
3569 0.918916 2284.51 3.80733 0 0.137667 3.66967 
3577 0.948498 2400.69 4.085 0 0.14 3.945 
3585 0 0 0 0 0 0 
3593 0.00151119 9.54175 0.001 0 0.000333333 0.000666667 
3601 0.00190035 3.30754 0.001 0 0 0.001 
3609 0.00336891 10.4055 0.002 0 0.000333333 0.00166667 
3617 0.00543396 22.0764 0.003 0 0.000333333 0.00266667 
3625 0.0102406 47.3039 0.00533333 0 0.001 0.00433333 
3633 0.0186085 82.6046 0.00866667 0 0.000666667 0.008 
3641 0.0366509 171.135 0.0166667 0 0.000666667 0.016 
3649 0.0646788 247.538 0.027 0 0.00133333 0.0256667 
3657 0.105384 446.689 0.0406667 0 0.00166667 0.039 
3665 0.173586 758.751 0.0593333 0 0.00133333 0.058 
3673 0.283463 1037.42 0.093 0 0.00466667 0.0883333 
3681 0.399822 1378.59 0.129333 0 0.00366667 0.125667 
3689 0.553608 1794.71 0.17 0 0.006 0.164 
3697 0.69508 2089.68 0.210667 0 0.008 0.202667 
3705 0.864583 2442.06 0.261667 0 0.00866667 0.253 
3713 0.802408 2288.71 0.252 0 0.006 0.246 
3721 0.86018 2384.18 0.451 0 0.0143333 0.436667 
3729 0.869367 2378.41 0.777667 0 0.0253333 0.752333 
3737 0.896671 2360.51 1.326 0 0.044 1.282 
3745 0.923141 2412.41 2.083 0 0.0743333 2.00867 
3753 0.91842 2334.49 2.987 0 0.108333 2.87867 
3761 0.90129 2255.77 3.731 0 0.135333 3.59567 
3769 0.935722 2343.01 4.002 0 0.138333 3.86367 
3777 0.00189223 3.05488 0.000333333 0 0.000333333 0 
3785 0.00112327 0.698349 0.000666667 0 0 0.000666667 
3793 0.00242427 5.80323 0.00166667 0 0.000333333 0.00133333 
3801 0 0 0 0 0 0 
3809 0.00659037 34.9086 0.00366667 0 0.000333333 0.00333333 
3817 0.0126456 35.4835 0.006 0 0.000333333 0.00566667 
3825 0.0241314 90.6895 0.012 0 0.00133333 0.0106667 
3833 0.0372548 157.57 0.018 0 0 0.018 
3841 0.0611659 324.279 0.027 0 0.00166667 0.0253333 
3849 0.109372 477.334 0.0426667 0 0.00166667 0.041 
3857 0.180217 703.68 0.068 0 0.00366667 0.0643333 
3865 0.264367 976.105 0.0906667 0 0.00233333 0.0883333 
3873 0.440351 1503.58 0.135 0 0.006 0.129 
3881 0.610828 2022.17 0.18 0 0.00466667 0.175333 
3889 0.794335 2414.49 0.224 0 0.005 0.219 
3897 0.842519 2375.31 0.235667 0 0.00766667 0.228 
3905 0.827371 2266.28 0.249 0 0.00833333 0.240667 
3913 0.883275 2412.09 0.453667 0 0.0156667 0.438 
3921 0.83412 2267.8 0.732667 0 0.029 0.703667 
3929 0.883481 2318.35 1.309 0 0.0446667 1.26433 
3937 0.89505 2351.62 1.986 0 0.0723333 1.91367 
3945 0.915265 2326.27 3.004 0 0.115 2.889 
3953 0.903962 2269.18 3.686 0 0.150333 3.53567 
3961 0.939847 2380.87 4.00133 0 0.148333 3.853 
3969 0.000467466 1.06948 0.000333333 0 0 0.000333333 
3977 0.000386361 1.81419 0.000333333 0 0 0.000333333 
3985 0.0020184 7.86508 0.001 0 0 0.001 
3993 0.00343231 15.4017 0.002 0 0.000333333 0.00166667 
4001 0.00376188 14.6985 0.00266667 0 0 0.00266667 
4009 0.0175596 51.7041 0.00866667 0 0 0.00866667 
4017 0.0255561 125.514 0.0143333 0 0.000333333 0.014 
4025 0.0403784 149.857 0.016 0 0 0.016 
4033 0.0630288 295.534 0.0286667 0 0.00166667 0.027 
4041 0.1272 598.212 0.0493333 0 0.00266667 0.0466667 
4049 0.193856 852.079 0.0743333 0 0.003 0.0713333 
4057 0.292706 1111.24 0.096 0 0.003 0.093 
4065 0.376827 1245.56 0.118333 0 0.006 0.112333 
4073 0.598834 1955.36 0.177667 0 0.00733333 0.170333 
4081 0.682857 2088.3 0.2 0 0.00633333 0.193667 
4089 0.837499 2348.25 0.247667 0 0.00866667 0.239 
4097 0.82914 2320.73 0.246333 0 0.0103333 0.236 
4105 0.867009 2395.31 0.445667 0 0.0146667 0.431 
4113 0.830226 2260.04 0.759 0 0.025 0.734 
4121 0.882962 2361.28 1.299 0 0.0456667 1.25333 
4129 0.87092 2267.79 1.95467 0 0.069 1.88567 
4137 0.917347 2345.51 2.91 0 0.106667 2.80333 
4145 0.892799 2251.01 3.58 0 0.133667 3.44633 
4153 0.935126 2350.63 3.91367 0 0.127 3.78667 
4161 0 0 0 0 0 0 
4169 0.000983062 1.12155 0.000666667 0 0.000333333 0.000333333 
4177 0.00397105 16.2783 0.00233333 0 0 0.00233333 
4185 0.00229013 8.39479 0.00133333 0 0 0.00133333 
4193 0.00546369 31.0689 0.00333333 0 0.000333333 0.003 
4201 0.00868367 39.9264 0.005 0 0 0.005 
4209 0.0215203 107.314 0.0116667 0 0.000333333 0.0113333 
4217 0.0472761 213.14 0.0226667 0 0.00133333 0.0213333 
4225 0.070877 335.291 0.0303333 0 0.000666667 0.0296667 
4233 0.132174 640.428 0.0513333 0 0.00233333 0.049 
4241 0.192496 843.669 0.0683333 0 0.00266667 0.0656667 
4249 0.315866 1236.14 0.0996667 0 0.003 0.0966667 
4257 0.466808 1671.69 0.141333 0 0.00666667 0.134667 
4265 0.644133 2075.31 0.184333 0 0.00633333 0.178 
4273 0.792924 2323.75 0.220333 0 0.00766667 0.212667 
4281 0.893166 2605.61 0.248333 0 0.0113333 0.237 
4289 0.813488 2272.15 0.247 0 0.0113333 0.235667 
4297 0.859542 2367.81 0.434667 0 0.0166667 0.418 
4305 0.899208 2415.09 0.786667 0 0.0273333 0.759333 
4313 0.883299 2290.29 1.30467 0 0.0423333 1.26233 
4321 0.872448 2226.13 1.94467 0 0.0696667 1.875 
4329 0.906026 2314.44 2.834 0 0.106333 2.72767 
4337 0.889669 2221.92 3.54933 0 0.140667 3.40867 
4345 0.918291 2345.44 3.85567 0 0.161 3.69467 
4353 0.00108614 0.698632 0.000333333 0 0 0.000333333 
4361 0.00193365 6.15467 0.00133333 0 0.000333333 0.001 
4369 0.0060254 21.8231 0.004 0 0 0.004 
4377 0.0030256 10.2696 0.00166667 0 0 0.00166667 
4385 0.0063097 16.9344 0.003 0 0.000333333 0.00266667 
4393 0.0128122 59.8859 0.007 0 0.000333333 0.00666667 
4401 0.0143577 70.3945 0.00833333 0 0.001 0.00733333 
4409 0.0430553 197.194 0.021 0 0.00133333 0.0196667 
4417 0.0713073 332.747 0.0313333 0 0.001 0.0303333 
4425 0.115808 487.851 0.0433333 0 0.00266667 0.0406667 
4433 0.21995 815.023 0.0773333 0 0.00366667 0.0736667 
4441 0.33757 1412.22 0.102667 0 0.00466667 0.098 
4449 0.477089 1634.21 0.142333 0 0.008 0.134333 
4457 0.600687 1994.87 0.181 0 0.00666667 0.174333 
4465 0.741265 2236.79 0.207 0 0.00966667 0.197333 
4473 0.895477 2560.86 0.256667 0 0.00966667 0.247 
4481 0.867659 2469.07 0.249 0 0.009 0.24 
4489 0.926898 2503.48 0.469333 0 0.0116667 0.457667 
4497 0.876101 2346.31 0.782667 0 0.0326667 0.75 
4505 0.878771 2310.34 1.26867 0 0.044 1.22467 
4513 0.910856 2377.17 2.01 0 0.0726667 1.93733 
4521 0.905493 2316.48 2.82 0 0.0986667 2.72133 
4529 0.911037 2297.07 3.57467 0 0.136333 3.43833 
4537 0.94043 2382.02 3.893 0 0.154 3.739 
4545 0 0 0 0 0 0 
4553 0.0013116 5.75325 0.001 0 0.000333333 0.000666667 
4561 0.00322729 9.9134 0.002 0 0.000333333 0.00166667 
4569 0.00317091 8.67423 0.002 0 0.000333333 0.00166667 
4577 0.00630137 12.6157 0.00333333 0 0 0.00333333 
4585 0.0134108 52.3264 0.00766667 0 0.001 0.00666667 
4593 0.0209265 91.0006 0.0116667 0 0 0.0116667 
4601 0.0454577 193.325 0.019 0 0.000333333 0.0186667 
4609 0.0692082 349.216 0.0333333 0 0.00266667 0.0306667 
4617 0.13368 635.85 0.0533333 0 0.00366667 0.0496667 
4625 0.218506 963.603 0.0756667 0 0.00266667 0.073 
4633 0.327236 1307.59 0.106667 0 0.00733333 0.0993333 
4641 0.429349 1496.3 0.130667 0 0.00633333 0.124333 
4649 0.5914 1870.59 0.169333 0 0.00733333 0.162 
4657 0.713729 2127.68 0.212667 0 0.007 0.205667 
4665 0.846498 2397.56 0.245 0 0.01 0.235 
4673 0.850509 2325.01 0.253667 0 0.0106667 0.243 
4681 0.885044 2432.5 0.451333 0 0.0163333 0.435 
4689 0.840632 2204.39 0.748333 0 0.028 0.720333 
4697 0.852813 2221.54 1.259 0 0.0463333 1.21267 
4705 0.879502 2279.35 1.94033 0 0.0736667 1.86667 
4713 0.909084 2333.94 2.81167 0 0.099 2.71267 
4721 0.923397 2329.39 3.547 0 0.121333 3.42567 
4729 0.936531 2363.17 3.79467 0 0.138 3.65667 
4737 0.000795747 -0.0479033 0.000333333 0 0 0.000333333 
4745 0.00332273 9.43611 0.002 0 0.000666667 0.00133333 
4753 0.00119521 2.28176 0.000666667 0 0 0.000666667 
4761 0.00566219 20.0246 0.003 0 0 0.003 
4769 0.00648708 27.6977 0.004 0 0 0.004 
4777 0.0152715 62.07 0.00866667 0 0.00133333 0.00733333 
4785 0.0264556 90.1157 0.013 0 0.000333333 0.0126667 
4793 0.0353525 162.943 0.0163333 0 0.000333333 0.016 
4801 0.0714669 360.51 0.0303333 0 0.001 0.0293333 
4809 0.120066 548.859 0.0493333 0 0.001 0.0483333 
4817 0.19025 807.03 0.0653333 0 0.00233333 0.063 
4825 0.297006 1103.89 0.0966667 0 0.00333333 0.0933333 
4833 0.398292 1350.05 0.126333 0 0.005 0.121333 
4841 0.530295 1645.46 0.159667 0 0.00433333 0.155333 
4849 0.750797 2159.95 0.217333 0 0.00666667 0.210667 
4857 0.764655 2137.95 0.227 0 0.005 0.222 
4865 0.83513 2296.42 0.249 0 0.00933333 0.239667 
4873 0.855099 2348.58 0.428667 0 0.0206667 0.408 
4881 0.824738 2206.58 0.723 0 0.0283333 0.694667 
4889 0.902117 2344.34 1.28033 0 0.0516667 1.22867 
4897 0.872475 2263.48 1.88833 0 0.069 1.81933 
4905 0.888734 2236.68 2.70867 0 0.0876667 2.621 
4913 0.949925 2410.37 3.59867 0 0.141667 3.457 
4921 0.927253 2328.46 3.78667 0 0.148 3.63867 
4929 0 0 0 0 0 0 
4937 0.0011188 2.40634 0.001 0 0 0.001 
4945 0.00420771 14.9381 0.00233333 0 0 0.00233333 
4953 0.00553769 15.3175 0.003 0 0 0.003 
4961 0.0129006 41.8886 0.00666667 0 0.000666667 0.006 
4969 0.0137946 44.482 0.00633333 0 0.000333333 0.006 
4977 0.0157525 59.418 0.00766667 0 0 0.00766667 
4985 0.050433 201.579 0.0226667 0 0.00166667 0.021 
4993 0.0770859 331.33 0.03 0 0.001 0.029 
5001 0.141563 595.264 0.053 0 0.00266667 0.0503333 
5009 0.211574 839.712 0.0746667 0 0.00466667 0.07 
5017 0.253547 992.547 0.085 0 0.00466667 0.0803333 