ITEM: TIMESTEP
12000
ITEM: NUMBER OF CELLS
11858
ITEM: BOX BOUNDS oo ro oo
-2.505 0.895
0 2.5
-2.5 2.5
ITEM: CELLS id f_2[1] f_2[2] f_2[3] f_2[4] f_2[5] f_2[6] f_2[7] f_2[8] 
1 1.1814e-18 4.20101e-21 2.70449e-21 7.18548e-26 4.22236e-08 0.0334959 0.0302937 0.969706 
2 1.15026e-18 5.59e-21 4.40987e-21 7.18423e-26 4.38532e-08 0.0509082 0.0306029 0.969397 
3 1.10397e-18 7.4727e-21 7.18872e-21 7.18194e-26 4.60666e-08 0.0763694 0.0311708 0.968829 
4 1.03873e-18 1.05294e-20 1.07389e-20 7.17955e-26 4.94669e-08 0.11255 0.0317617 0.968238 
11 1.18272e-18 4.32198e-21 2.46827e-21 7.18614e-26 4.1935e-08 0.0325201 0.0301297 0.96987 
12 1.14959e-18 5.72806e-21 4.44302e-21 7.18413e-26 4.3316e-08 0.0504322 0.0306288 0.969371 
13 1.10596e-18 7.66333e-21 7.09719e-21 7.1824e-26 4.52112e-08 0.074373 0.0310569 0.968943 
14 1.03765e-18 1.05334e-20 1.08818e-20 7.18025e-26 4.86334e-08 0.110949 0.0315886 0.968411 
21 1.18229e-18 4.30455e-21 2.34184e-21 7.18654e-26 4.19138e-08 0.0325264 0.0300305 0.96997 
22 1.1519e-18 5.69799e-21 4.28122e-21 7.18514e-26 4.316e-08 0.0491161 0.0303792 0.969621 
23 1.10997e-18 7.48852e-21 6.83487e-21 7.18358e-26 4.50202e-08 0.0720415 0.0307648 0.969235 
24 1.04598e-18 1.04439e-20 1.0475e-20 7.18136e-26 4.81718e-08 0.105939 0.0313136 0.968686 
31 1.18664e-18 4.11238e-21 2.30053e-21 7.18591e-26 4.18009e-08 0.0301309 0.0301887 0.969811 
32 1.15971e-18 5.33302e-21 3.93355e-21 7.18345e-26 4.28788e-08 0.0449058 0.0307956 0.969204 
33 1.11991e-18 7.05567e-21 6.22713e-21 7.18278e-26 4.46322e-08 0.0664987 0.0309626 0.969037 
34 1.06224e-18 9.53396e-21 9.63086e-21 7.18205e-26 4.7395e-08 0.0972337 0.0311438 0.968856 
41 1.19158e-18 3.95359e-21 2.14866e-21 7.18676e-26 4.1652e-08 0.0274189 0.0299764 0.970024 
42 1.16512e-18 5.04834e-21 3.76937e-21 7.18578e-26 4.27358e-08 0.0418113 0.0302188 0.969781 
43 1.12997e-18 6.63026e-21 5.75667e-21 7.18389e-26 4.42031e-08 0.0606572 0.0306886 0.969311 
44 1.08047e-18 8.79427e-21 8.67858e-21 7.18416e-26 4.6507e-08 0.0869088 0.0306198 0.96938 
51 1.19574e-18 3.64632e-21 2.02375e-21 7.18661e-26 4.13774e-08 0.0247542 0.0300136 0.969986 
52 1.17295e-18 4.75223e-21 3.35604e-21 7.18532e-26 4.2346e-08 0.0370456 0.0303325 0.969667 
53 1.14238e-18 6.20071e-21 5.2226e-21 7.18548e-26 4.36061e-08 0.0533315 0.030295 0.969705 
54 1.10422e-18 7.881e-21 7.45157e-21 7.18457e-26 4.53731e-08 0.0739332 0.0305184 0.969482 
61 1.2014e-18 3.51111e-21 1.61918e-21 7.1869e-26 4.12239e-08 0.0217487 0.0299417 0.970058 
62 1.18313e-18 4.3911e-21 2.81307e-21 7.1873e-26 4.19507e-08 0.0315612 0.0298437 0.970156 
63 1.15948e-18 5.45752e-21 4.14148e-21 7.18541e-26 4.29351e-08 0.0443145 0.0303124 0.969688 
64 1.12945e-18 6.85468e-21 6.25931e-21 7.18456e-26 4.42181e-08 0.0603256 0.030522 0.969478 
71 1.16929e-18 4.84988e-21 3.20284e-21 7.18503e-26 4.27146e-08 0.0401215 0.0304064 0.969594 
72 1.13053e-18 6.66861e-21 5.39285e-21 7.18173e-26 4.49178e-08 0.061613 0.0312232 0.968777 
73 1.07285e-18 9.3865e-21 8.99873e-21 7.18064e-26 4.81265e-08 0.0938949 0.0314918 0.968508 
74 9.89137e-19 1.31256e-20 1.41411e-20 7.17902e-26 5.31957e-08 0.140886 0.0318932 0.968107 
81 1.17199e-18 4.82119e-21 3.00953e-21 7.18479e-26 4.23719e-08 0.0385574 0.0304639 0.969536 
82 1.1297e-18 6.80665e-21 5.57806e-21 7.18457e-26 4.41112e-08 0.0610851 0.0305191 0.969481 
83 1.07172e-18 9.34907e-21 9.12964e-21 7.18166e-26 4.67788e-08 0.0916166 0.031239 0.968761 
84 9.87633e-19 1.29212e-20 1.4149e-20 7.18012e-26 5.1185e-08 0.136389 0.0316222 0.968378 
91 1.17113e-18 4.68784e-21 3.07781e-21 7.18493e-26 4.23918e-08 0.0388719 0.0304304 0.96957 
92 1.13221e-18 6.51848e-21 5.47216e-21 7.18239e-26 4.39379e-08 0.0590539 0.0310601 0.96894 
93 1.07601e-18 9.10501e-21 8.86599e-21 7.18031e-26 4.65087e-08 0.0890405 0.0315739 0.968426 
94 9.94863e-19 1.28876e-20 1.40223e-20 7.17924e-26 5.06903e-08 0.131897 0.0318405 0.968159 
101 1.17479e-18 4.50883e-21 2.95287e-21 7.18525e-26 4.22522e-08 0.0367183 0.0303505 0.96965 
102 1.14018e-18 6.24269e-21 5.08882e-21 7.18401e-26 4.36838e-08 0.0553787 0.0306573 0.969343 
103 1.0884e-18 8.62855e-21 8.49292e-21 7.18292e-26 4.59955e-08 0.0826897 0.0309282 0.969072 
104 1.01564e-18 1.21672e-20 1.27476e-20 7.18085e-26 4.96441e-08 0.12028 0.0314409 0.968559 
111 1.181e-18 4.29563e-21 2.68344e-21 7.18603e-26 4.20023e-08 0.0332857 0.0301587 0.969841 
112 1.14822e-18 6.04964e-21 4.74312e-21 7.18568e-26 4.33077e-08 0.0504916 0.0302449 0.969755 
113 1.10247e-18 8.42317e-21 7.62289e-21 7.18407e-26 4.53026e-08 0.074575 0.030644 0.969356 
114 1.03764e-18 1.1259e-20 1.16105e-20 7.18379e-26 4.85639e-08 0.108721 0.0307121 0.969288 
121 1.18791e-18 4.04809e-21 2.43718e-21 7.18676e-26 4.17724e-08 0.0293505 0.0299776 0.970022 
122 1.15955e-18 5.53407e-21 4.25238e-21 7.18558e-26 4.29348e-08 0.044289 0.0302688 0.969731 
123 1.12068e-18 7.30804e-21 6.68936e-21 7.18454e-26 4.45432e-08 0.0644356 0.0305277 0.969472 
124 1.06622e-18 9.99409e-21 9.7158e-21 7.18278e-26 4.70441e-08 0.0928545 0.0309622 0.969038 
131 1.19387e-18 3.89253e-21 1.9081e-21 7.18713e-26 4.15608e-08 0.0259848 0.0298859 0.970114 
132 1.17038e-18 4.97991e-21 3.69621e-21 7.18654e-26 4.2444e-08 0.0384348 0.0300323 0.969968 
133 1.14048e-18 6.61404e-21 5.49255e-21 7.18511e-26 4.36632e-08 0.0541824 0.0303863 0.969614 
134 1.09886e-18 8.64101e-21 7.90388e-21 7.18489e-26 4.54973e-08 0.0758816 0.0304397 0.96956 
141 1.1588e-18 5.29558e-21 3.83642e-21 7.18474e-26 4.31642e-08 0.0462703 0.0304762 0.969524 
142 1.11171e-18 7.55262e-21 6.79136e-21 7.18276e-26 4.57564e-08 0.0720233 0.0309682 0.969032 
143 1.04154e-18 1.10157e-20 1.09875e-20 7.18046e-26 4.96976e-08 0.110414 0.0315364 0.968464 
144 9.45775e-19 1.52455e-20 1.66279e-20 7.17743e-26 5.59385e-08 0.164473 0.032288 0.967712 
151 1.16093e-18 5.25267e-21 3.72853e-21 7.18442e-26 4.278e-08 0.0446984 0.0305556 0.969444 
152 1.11083e-18 7.80763e-21 6.86509e-21 7.18241e-26 4.49972e-08 0.0710401 0.0310544 0.968946 
153 1.04189e-18 1.07883e-20 1.09262e-20 7.17995e-26 4.83051e-08 0.107756 0.0316631 0.968337 
154 9.40192e-19 1.50398e-20 1.73275e-20 7.17693e-26 5.41087e-08 0.161122 0.0324131 0.967587 
161 1.16169e-18 5.02939e-21 3.51389e-21 7.18437e-26 4.28051e-08 0.0442275 0.0305675 0.969433 
162 1.11433e-18 7.67663e-21 6.79832e-21 7.18229e-26 4.48991e-08 0.0693324 0.0310836 0.968916 
163 1.04955e-18 1.06287e-20 1.08834e-20 7.17944e-26 4.79528e-08 0.103341 0.0317893 0.968211 
164 9.53645e-19 1.47149e-20 1.64535e-20 7.17715e-26 5.3342e-08 0.153954 0.0323587 0.967641 
171 1.16511e-18 5.01337e-21 3.41359e-21 7.18472e-26 4.26672e-08 0.0421483 0.0304817 0.969518 
172 1.12154e-18 7.08016e-21 6.25926e-21 7.18317e-26 4.45582e-08 0.0651299 0.0308661 0.969134 
173 1.06043e-18 9.78056e-21 9.80211e-21 7.18384e-26 4.74104e-08 0.0976589 0.0306987 0.969301 
174 9.7284e-19 1.39245e-20 1.52874e-20 7.18061e-26 5.21974e-08 0.14349 0.0314991 0.968501 
181 1.17281e-18 4.73355e-21 2.91539e-21 7.18479e-26 4.23809e-08 0.0381878 0.0304637 0.969536 
182 1.13203e-18 6.82485e-21 5.94691e-21 7.18454e-26 4.41281e-08 0.0594692 0.0305273 0.969473 
183 1.07657e-18 9.35846e-21 9.26261e-21 7.18342e-26 4.66428e-08 0.0883451 0.0308028 0.969197 
184 1.00251e-18 1.31483e-20 1.38048e-20 7.18197e-26 5.04968e-08 0.126896 0.0311625 0.968838 
191 1.17992e-18 4.44036e-21 2.76102e-21 7.18696e-26 4.21117e-08 0.0339342 0.0299277 0.970072 
192 1.14428e-18 6.12737e-21 5.0762e-21 7.18578e-26 4.3645e-08 0.0526246 0.0302196 0.96978 
193 1.09893e-18 8.35373e-21 8.06377e-21 7.18462e-26 4.56488e-08 0.0762447 0.0305062 0.969494 
194 1.03497e-18 1.14868e-20 1.19247e-20 7.18077e-26 4.87831e-08 0.109079 0.0314615 0.968538 
201 1.18782e-18 4.10259e-21 2.43011e-21 7.18641e-26 4.17401e-08 0.0293401 0.0300633 0.969937 
202 1.16026e-18 5.54793e-21 4.32334e-21 7.18546e-26 4.29254e-08 0.0439453 0.0302994 0.969701 
203 1.12228e-18 7.60006e-21 6.87831e-21 7.18303e-26 4.44345e-08 0.0635736 0.0308997 0.9691 
204 1.07114e-18 1.00164e-20 9.76851e-21 7.18261e-26 4.68565e-08 0.0902332 0.0310048 0.968995 
262 1.13182e-18 6.75379e-21 5.90122e-21 7.185e-26 4.40415e-08 0.0591907 0.030413 0.969587 
263 1.07871e-18 9.44317e-21 9.43239e-21 7.18266e-26 4.65624e-08 0.086966 0.0309926 0.969007 
264 1.00631e-18 1.28706e-20 1.41948e-20 7.18097e-26 5.03598e-08 0.124295 0.031411 0.968589 
271 1.17915e-18 4.48432e-21 2.6319e-21 7.18529e-26 4.20658e-08 0.0339984 0.0303406 0.969659 
272 1.14965e-18 6.1614e-21 4.92341e-21 7.18517e-26 4.32933e-08 0.0494774 0.0303708 0.969629 
273 1.10576e-18 8.19356e-21 7.73742e-21 7.18369e-26 4.52919e-08 0.0723925 0.0307379 0.969262 
274 1.04846e-18 1.06693e-20 1.16807e-20 7.18419e-26 4.80244e-08 0.102371 0.0306143 0.969386 
211 1.14996e-18 5.61188e-21 4.47428e-21 7.18353e-26 4.34762e-08 0.0511252 0.0307766 0.969223 
212 1.09543e-18 8.48669e-21 8.07374e-21 7.18057e-26 4.64698e-08 0.0805064 0.03151 0.96849 
213 1.01982e-18 1.21711e-20 1.2711e-20 7.17852e-26 5.10274e-08 0.122532 0.0320178 0.967982 
214 9.08364e-19 1.70765e-20 1.91238e-20 7.17691e-26 5.87571e-08 0.185149 0.0324179 0.967582 
221 1.14966e-18 5.64038e-21 4.29337e-21 7.18347e-26 4.33018e-08 0.0511589 0.0307922 0.969208 
222 1.09241e-18 8.54873e-21 7.83334e-21 7.18107e-26 4.58176e-08 0.0811192 0.0313862 0.968614 
223 1.0122e-18 1.22666e-20 1.27418e-20 7.1782e-26 4.98409e-08 0.123346 0.0320965 0.967904 
224 9.01798e-19 1.71852e-20 1.93709e-20 7.17544e-26 5.67258e-08 0.181809 0.0327811 0.967219 
231 1.15291e-18 5.47687e-21 4.21004e-21 7.18383e-26 4.3144e-08 0.0490123 0.030703 0.969297 
232 1.09918e-18 8.12519e-21 7.72675e-21 7.18231e-26 4.55053e-08 0.0773297 0.0310795 0.96892 
233 1.023e-18 1.1893e-20 1.2171e-20 7.1796e-26 4.93594e-08 0.11757 0.0317506 0.968249 
234 9.15632e-19 1.67581e-20 1.88794e-20 7.17726e-26 5.59071e-08 0.174399 0.032331 0.967669 
241 1.15643e-18 5.25385e-21 4.13762e-21 7.18406e-26 4.29719e-08 0.0470083 0.0306463 0.969354 
242 1.10901e-18 7.83396e-21 7.32464e-21 7.18339e-26 4.50662e-08 0.0720192 0.0308119 0.969188 
243 1.03859e-18 1.12602e-20 1.14455e-20 7.18181e-26 4.85588e-08 0.108764 0.0312038 0.968796 
244 9.38447e-19 1.56206e-20 1.75068e-20 7.17955e-26 5.43699e-08 0.161341 0.0317624 0.968238 
251 1.16302e-18 5.12604e-21 3.64525e-21 7.18478e-26 4.27677e-08 0.0434659 0.0304682 0.969532 
252 1.1195e-18 7.3259e-21 6.42699e-21 7.1829e-26 4.47074e-08 0.0662792 0.0309317 0.969068 
253 1.05839e-18 1.05892e-20 1.01639e-20 7.18059e-26 4.75764e-08 0.0981142 0.0315042 0.968496 
254 9.71693e-19 1.45299e-20 1.55641e-20 7.17881e-26 5.23818e-08 0.143495 0.0319464 0.968054 
261 1.17106e-18 4.70964e-21 3.30401e-21 7.18503e-26 4.24003e-08 0.0386427 0.0304052 0.969595 
281 1.14099e-18 5.90975e-21 4.90416e-21 7.18443e-26 4.3989e-08 0.0559989 0.0305543 0.969446 
282 1.08052e-18 9.0935e-21 8.9795e-21 7.18258e-26 4.73315e-08 0.0887603 0.0310122 0.968988 
176 7.02175e-19 2.56211e-20 3.13437e-20 7.18156e-26 7.56057e-08 0.285195 0.0312655 0.968735 
186 7.58157e-19 2.33637e-20 2.83204e-20 7.18199e-26 6.91788e-08 0.251943 0.031158 0.968842 
196 8.27467e-19 2.0286e-20 2.49462e-20 7.18169e-26 6.28162e-08 0.213549 0.0312313 0.968769 
206 9.05725e-19 1.68443e-20 2.02412e-20 7.18466e-26 5.66937e-08 0.172613 0.0304961 0.969504 
255 8.49541e-19 1.9866e-20 2.33751e-20 7.17796e-26 6.09484e-08 0.20634 0.0321562 0.967844 
5 9.42545e-19 1.45178e-20 1.59786e-20 7.17952e-26 5.52797e-08 0.165018 0.03177 0.96823 
15 9.39239e-19 1.46117e-20 1.60937e-20 7.18065e-26 5.45318e-08 0.163615 0.0314898 0.96851 
25 9.57685e-19 1.38582e-20 1.53383e-20 7.18093e-26 5.33427e-08 0.153392 0.0314204 0.96858 
35 9.82583e-19 1.30808e-20 1.41787e-20 7.18099e-26 5.18219e-08 0.139307 0.0314066 0.968593 
45 1.01172e-18 1.18502e-20 1.26266e-20 7.1825e-26 5.01223e-08 0.123006 0.0310327 0.968967 
55 1.04555e-18 1.04832e-20 1.09223e-20 7.18399e-26 4.8351e-08 0.104488 0.0306617 0.969338 
65 1.08527e-18 8.72629e-21 8.66079e-21 7.1836e-26 4.63912e-08 0.0835823 0.0307583 0.969242 
75 8.73138e-19 1.83109e-20 2.10409e-20 7.17644e-26 6.15944e-08 0.205883 0.0325339 0.967466 
85 8.6691e-19 1.7984e-20 2.13351e-20 7.17868e-26 5.92483e-08 0.199811 0.031979 0.968021 
95 8.84159e-19 1.7806e-20 1.99812e-20 7.17938e-26 5.78886e-08 0.189687 0.0318052 0.968195 
105 9.12521e-19 1.63798e-20 1.91327e-20 7.1815e-26 5.59181e-08 0.173755 0.0312805 0.968719 
115 9.51775e-19 1.48895e-20 1.63297e-20 7.18384e-26 5.35686e-08 0.153118 0.0307002 0.9693 
125 9.92986e-19 1.33124e-20 1.42849e-20 7.18219e-26 5.10285e-08 0.130143 0.0311095 0.96889 
135 1.04092e-18 1.09215e-20 1.17879e-20 7.18365e-26 4.83317e-08 0.105002 0.030747 0.969253 
145 8.1298e-19 2.07029e-20 2.45137e-20 7.17775e-26 6.71612e-08 0.240927 0.0322099 0.96779 
155 8.02709e-19 2.09466e-20 2.5402e-20 7.17766e-26 6.4632e-08 0.234586 0.0322317 0.967768 
165 8.22829e-19 2.04017e-20 2.41177e-20 7.17735e-26 6.28491e-08 0.2229 0.032308 0.967692 
175 8.56086e-19 1.91296e-20 2.21466e-20 7.18028e-26 6.02711e-08 0.204278 0.0315827 0.968417 
185 8.97071e-19 1.77834e-20 2.01887e-20 7.18215e-26 5.72026e-08 0.181346 0.0311181 0.968882 
195 9.45729e-19 1.57167e-20 1.77893e-20 7.1815e-26 5.39343e-08 0.154494 0.0312791 0.968721 
205 1.00107e-18 1.29505e-20 1.4749e-20 7.1841e-26 5.05396e-08 0.125736 0.0306345 0.969366 
6 8.12065e-19 1.93174e-20 2.33406e-20 7.1803e-26 6.57925e-08 0.236308 0.0315769 0.968423 
16 8.12329e-19 1.92939e-20 2.26042e-20 7.17984e-26 6.45148e-08 0.231202 0.0316904 0.96831 
26 8.39461e-19 1.84911e-20 2.138e-20 7.17919e-26 6.21622e-08 0.215687 0.0318525 0.968148 
36 8.73475e-19 1.74498e-20 1.99245e-20 7.18101e-26 5.93582e-08 0.195649 0.0314012 0.968599 
46 9.20866e-19 1.56312e-20 1.78633e-20 7.18246e-26 5.6052e-08 0.169436 0.0310418 0.968958 
56 9.73882e-19 1.36588e-20 1.51052e-20 7.18382e-26 5.26818e-08 0.140701 0.0307044 0.969296 
66 1.0291e-18 1.15538e-20 1.22023e-20 7.18456e-26 4.93779e-08 0.111769 0.0305204 0.96948 
76 7.15915e-19 2.45593e-20 2.99201e-20 7.17728e-26 7.74131e-08 0.294317 0.0323262 0.967674 
86 7.10181e-19 2.46756e-20 2.98656e-20 7.18004e-26 7.43872e-08 0.283479 0.0316417 0.968358 
96 7.35421e-19 2.384e-20 2.82842e-20 7.18016e-26 7.15044e-08 0.268433 0.0316106 0.968389 
106 7.78341e-19 2.21029e-20 2.61767e-20 7.18124e-26 6.70869e-08 0.243129 0.0313429 0.968657 
116 8.33063e-19 2.00788e-20 2.36027e-20 7.18173e-26 6.23141e-08 0.213057 0.0312233 0.968777 
126 8.97405e-19 1.75404e-20 2.02646e-20 7.183e-26 5.7313e-08 0.177866 0.0309075 0.969092 
136 9.66486e-19 1.44955e-20 1.64137e-20 7.18391e-26 5.2714e-08 0.142058 0.0306814 0.969319 
146 6.40155e-19 2.77394e-20 3.47635e-20 7.1778e-26 8.92941e-08 0.343445 0.0321963 0.967804 
156 6.30153e-19 2.82135e-20 3.54615e-20 7.17873e-26 8.5304e-08 0.328113 0.0319663 0.968034 
166 6.57887e-19 2.70355e-20 3.39436e-20 7.17917e-26 8.13016e-08 0.311378 0.031858 0.968142 
283 9.96584e-19 1.30233e-20 1.40775e-20 7.18071e-26 5.23905e-08 0.13531 0.031476 0.968524 
284 8.75e-19 1.88407e-20 2.1795e-20 7.17608e-26 6.13114e-08 0.203661 0.0326236 0.967376 
291 1.14141e-18 5.96585e-21 4.84497e-21 7.18252e-26 4.36364e-08 0.0555537 0.0310269 0.968973 
292 1.07917e-18 9.2295e-21 8.93855e-21 7.18053e-26 4.64527e-08 0.0879722 0.0315196 0.96848 
293 9.91115e-19 1.3241e-20 1.4335e-20 7.17818e-26 5.10685e-08 0.134114 0.0321019 0.967898 
294 8.67226e-19 1.86423e-20 2.15836e-20 7.17581e-26 5.94284e-08 0.200224 0.0326901 0.96731 
301 1.14281e-18 5.92151e-21 4.4778e-21 7.18309e-26 4.35797e-08 0.0546896 0.030886 0.969114 
302 1.08435e-18 9.02401e-21 8.45348e-21 7.18012e-26 4.62811e-08 0.0853827 0.0316206 0.968379 
303 1.00209e-18 1.26714e-20 1.36492e-20 7.17803e-26 5.05738e-08 0.128627 0.0321408 0.967859 
304 8.85082e-19 1.80622e-20 2.09232e-20 7.17757e-26 5.8181e-08 0.190236 0.0322526 0.967747 
311 1.15051e-18 5.45633e-21 4.25048e-21 7.18425e-26 4.32408e-08 0.0504834 0.0305982 0.969402 
312 1.09579e-18 8.49358e-21 8.07357e-21 7.18209e-26 4.56927e-08 0.0792141 0.0311338 0.968866 
313 1.01744e-18 1.22476e-20 1.31197e-20 7.17951e-26 4.96946e-08 0.119845 0.0317718 0.968228 
314 9.09983e-19 1.72749e-20 1.96738e-20 7.17597e-26 5.63255e-08 0.176073 0.0326508 0.967349 
321 1.15676e-18 5.28533e-21 3.93498e-21 7.18436e-26 4.30092e-08 0.0466596 0.03057 0.96943 
322 1.10857e-18 7.81583e-21 7.4398e-21 7.18235e-26 4.51024e-08 0.0717383 0.0310681 0.968932 
323 1.0394e-18 1.1252e-20 1.18113e-20 7.17926e-26 4.8613e-08 0.107968 0.031834 0.968166 
324 9.43539e-19 1.58882e-20 1.82317e-20 7.17771e-26 5.41803e-08 0.157645 0.03222 0.96778 
331 1.1655e-18 5.02414e-21 3.68506e-21 7.18354e-26 4.26984e-08 0.0416346 0.030775 0.969225 
332 1.12239e-18 7.1665e-21 6.44866e-21 7.17995e-26 4.45173e-08 0.0642874 0.0316637 0.968336 
333 1.06236e-18 1.03441e-20 1.03714e-20 7.1791e-26 4.72928e-08 0.0950333 0.0318752 0.968125 
334 9.79399e-19 1.45553e-20 1.54022e-20 7.1791e-26 5.19396e-08 0.13806 0.0318744 0.968126 
341 1.1754e-18 4.71054e-21 3.1016e-21 7.18661e-26 4.23012e-08 0.0364977 0.0300134 0.969987 
342 1.14118e-18 6.37856e-21 5.46882e-21 7.18422e-26 4.37099e-08 0.0543574 0.0306059 0.969394 
343 1.09236e-18 8.97155e-21 8.42349e-21 7.18142e-26 4.58946e-08 0.0795559 0.0313005 0.9687 
344 1.02699e-18 1.19031e-20 1.25655e-20 7.18143e-26 4.92322e-08 0.113224 0.0312972 0.968703 
351 1.13532e-18 6.11724e-21 5.08577e-21 7.18258e-26 4.41643e-08 0.0591776 0.0310117 0.968988 
352 1.06864e-18 9.56325e-21 9.30593e-21 7.17888e-26 4.78848e-08 0.094921 0.0319296 0.96807 
353 9.79066e-19 1.36481e-20 1.49947e-20 7.17789e-26 5.35472e-08 0.144481 0.0321743 0.967826 
354 8.50483e-19 1.95959e-20 2.28018e-20 7.17649e-26 6.35432e-08 0.216716 0.0325226 0.967477 
361 1.13261e-18 6.36324e-21 5.227e-21 7.18205e-26 4.40605e-08 0.060296 0.0311423 0.968858 
362 1.06759e-18 9.65653e-21 9.3485e-21 7.18023e-26 4.71887e-08 0.0942608 0.0315937 0.968406 
363 9.76476e-19 1.40731e-20 1.49908e-20 7.17799e-26 5.22005e-08 0.142105 0.0321495 0.967851 
364 8.44673e-19 1.97667e-20 2.27783e-20 7.17623e-26 6.13945e-08 0.211488 0.0325869 0.967413 
371 1.13713e-18 6.11516e-21 4.92082e-21 7.18236e-26 4.38467e-08 0.0577571 0.0310652 0.968935 
372 1.07469e-18 9.44457e-21 9.01289e-21 7.18015e-26 4.67606e-08 0.0902776 0.0316145 0.968386 
373 9.8474e-19 1.36989e-20 1.48964e-20 7.17628e-26 5.16018e-08 0.137344 0.032573 0.967427 
374 8.61093e-19 1.96849e-20 2.26826e-20 7.17725e-26 6.00116e-08 0.202379 0.0323344 0.967666 
381 1.1441e-18 5.94014e-21 4.76755e-21 7.18228e-26 4.35962e-08 0.0535984 0.0310851 0.968915 
382 1.0853e-18 8.90197e-21 8.35039e-21 7.18154e-26 4.63478e-08 0.0845429 0.0312708 0.968729 
383 1.00116e-18 1.28685e-20 1.39091e-20 7.18022e-26 5.07623e-08 0.128715 0.0315963 0.968404 
384 8.88353e-19 1.85134e-20 2.11783e-20 7.1787e-26 5.8147e-08 0.187421 0.0319732 0.968027 
391 1.14911e-18 5.73454e-21 4.30772e-21 7.18341e-26 4.335e-08 0.0507865 0.0308058 0.969194 
392 1.09508e-18 8.28768e-21 8.17275e-21 7.18171e-26 4.57998e-08 0.0792839 0.0312283 0.968772 
393 1.02138e-18 1.22617e-20 1.32072e-20 7.18002e-26 4.95564e-08 0.117113 0.0316474 0.968353 
394 9.21016e-19 1.70089e-20 1.9543e-20 7.17947e-26 5.57651e-08 0.169496 0.0317836 0.968216 
401 1.16019e-18 5.25774e-21 3.83331e-21 7.18482e-26 4.28643e-08 0.0448847 0.0304575 0.969543 
402 1.11283e-18 7.95246e-21 7.45547e-21 7.18358e-26 4.49889e-08 0.0691818 0.0307654 0.969235 
403 1.05017e-18 1.11373e-20 1.17547e-20 7.18219e-26 4.80722e-08 0.101672 0.0311074 0.968893 
404 9.58688e-19 1.52907e-20 1.75497e-20 7.17939e-26 5.33059e-08 0.148772 0.0318034 0.968197 
411 1.17018e-18 4.87845e-21 3.42376e-21 7.18516e-26 4.24497e-08 0.0392533 0.030374 0.969626 
412 1.13297e-18 6.92146e-21 6.08647e-21 7.18294e-26 4.40537e-08 0.0585221 0.0309233 0.969077 
413 1.08224e-18 9.29611e-21 9.55637e-21 7.18278e-26 4.63697e-08 0.0849211 0.0309617 0.969038 
414 1.00742e-18 1.28488e-20 1.42131e-20 7.1806e-26 5.02974e-08 0.12321 0.0315028 0.968497 
421 1.13026e-18 6.23601e-21 5.47803e-21 7.18165e-26 4.44659e-08 0.062068 0.0312412 0.968759 
422 1.06133e-18 9.73537e-21 9.95303e-21 7.17963e-26 4.83125e-08 0.0991542 0.0317441 0.968256 
423 9.66268e-19 1.43702e-20 1.58543e-20 7.17764e-26 5.43444e-08 0.150723 0.0322352 0.967765 
424 8.33305e-19 2.05251e-20 2.42218e-20 7.17595e-26 6.50846e-08 0.22467 0.0326549 0.967345 
431 1.12956e-18 6.53686e-21 5.49838e-21 7.18265e-26 4.41487e-08 0.0619012 0.0309935 0.969007 
432 1.06023e-18 1.00813e-20 1.01471e-20 7.17946e-26 4.7403e-08 0.0975999 0.0317854 0.968215 
433 9.64535e-19 1.47183e-20 1.62881e-20 7.17779e-26 5.28579e-08 0.147507 0.0322001 0.9678 
434 8.30707e-19 2.06376e-20 2.39621e-20 7.17597e-26 6.28107e-08 0.218151 0.0326505 0.967349 
441 1.1331e-18 6.29789e-21 5.23063e-21 7.18202e-26 4.39939e-08 0.0600646 0.0311508 0.968849 
442 1.06635e-18 9.75561e-21 9.94525e-21 7.1807e-26 4.71874e-08 0.094588 0.0314787 0.968521 
443 9.73425e-19 1.44319e-20 1.58006e-20 7.17717e-26 5.2281e-08 0.142305 0.032352 0.967648 
444 8.45252e-19 2.01678e-20 2.40265e-20 7.17496e-26 6.14605e-08 0.209589 0.0329022 0.967098 
451 1.13847e-18 6.10626e-21 5.1323e-21 7.18314e-26 4.3759e-08 0.056676 0.0308728 0.969127 
452 1.07756e-18 9.4756e-21 9.1516e-21 7.18177e-26 4.66391e-08 0.0883286 0.0312135 0.968786 
453 9.91415e-19 1.33739e-20 1.46671e-20 7.18033e-26 5.12897e-08 0.13301 0.0315705 0.96843 
454 8.72621e-19 1.90264e-20 2.25768e-20 7.18041e-26 5.93656e-08 0.194767 0.031549 0.968451 
455 7.17653e-19 2.59104e-20 3.19868e-20 7.17902e-26 7.45971e-08 0.276998 0.0318942 0.968106 
461 1.14504e-18 5.92569e-21 4.7162e-21 7.18418e-26 4.35258e-08 0.0532321 0.0306151 0.969385 
462 1.09105e-18 8.70794e-21 8.61807e-21 7.18266e-26 4.61352e-08 0.081288 0.0309911 0.969009 
463 1.0139e-18 1.26411e-20 1.38902e-20 7.18145e-26 5.00982e-08 0.121029 0.031292 0.968708 
464 9.07085e-19 1.78636e-20 2.09181e-20 7.17928e-26 5.6911e-08 0.176234 0.0318293 0.968171 
465 7.64924e-19 2.4022e-20 2.98808e-20 7.17942e-26 6.93127e-08 0.250115 0.0317945 0.968206 
471 1.15628e-18 5.28032e-21 4.12414e-21 7.18466e-26 4.30888e-08 0.0469595 0.0304957 0.969504 
472 1.10613e-18 8.16047e-21 7.80081e-21 7.18171e-26 4.53772e-08 0.0728402 0.0312282 0.968772 
473 1.04054e-18 1.17235e-20 1.22858e-20 7.18024e-26 4.86774e-08 0.106747 0.0315909 0.968409 
474 9.47066e-19 1.64064e-20 1.86495e-20 7.17929e-26 5.41489e-08 0.154424 0.0318284 0.968172 
475 8.22067e-19 2.19682e-20 2.64414e-20 7.18052e-26 6.38824e-08 0.219053 0.0315215 0.968479 
481 1.16725e-18 5.12826e-21 3.48576e-21 7.18446e-26 4.26083e-08 0.0407669 0.0305458 0.969454 
482 1.12935e-18 7.29417e-21 6.42118e-21 7.18451e-26 4.42209e-08 0.0606519 0.0305332 0.969467 
483 1.07391e-18 9.86747e-21 1.0196e-20 7.18283e-26 4.67825e-08 0.0891004 0.0309495 0.969051 
484 9.94516e-19 1.36843e-20 1.51997e-20 7.18161e-26 5.10336e-08 0.129533 0.031252 0.968748 
485 8.87075e-19 1.88518e-20 2.20673e-20 7.18039e-26 5.8232e-08 0.183729 0.0315543 0.968446 
306 5.37994e-19 3.21857e-20 4.10622e-20 7.18065e-26 1.03537e-07 0.380331 0.0314902 0.96851 
316 5.87282e-19 3.07747e-20 3.92792e-20 7.18151e-26 9.37226e-08 0.349888 0.0312776 0.968722 
326 6.50663e-19 2.87822e-20 3.59547e-20 7.18219e-26 8.35195e-08 0.312726 0.0311088 0.968891 
336 7.21874e-19 2.55721e-20 3.19433e-20 7.18367e-26 7.39139e-08 0.270253 0.030742 0.969258 
346 8.10331e-19 2.20333e-20 2.6696e-20 7.18368e-26 6.45644e-08 0.221963 0.0307385 0.969262 
356 4.7093e-19 3.4208e-20 4.43287e-20 7.18166e-26 1.29283e-07 0.447254 0.0312407 0.968759 
366 4.69781e-19 3.433e-20 4.41649e-20 7.17914e-26 1.21738e-07 0.42102 0.0318647 0.968135 
376 5.05296e-19 3.37273e-20 4.31804e-20 7.18164e-26 1.12152e-07 0.398882 0.0312446 0.968755 
386 5.54395e-19 3.25608e-20 4.13384e-20 7.1821e-26 1.00756e-07 0.368214 0.0311318 0.968868 
215 7.57986e-19 2.35362e-20 2.83591e-20 7.17623e-26 7.28595e-08 0.272595 0.0325851 0.967415 
225 7.47906e-19 2.39352e-20 2.85946e-20 7.17375e-26 7.01573e-08 0.264382 0.033201 0.966799 
235 7.70051e-19 2.32081e-20 2.74992e-20 7.17644e-26 6.81129e-08 0.252337 0.0325336 0.967466 
245 8.05981e-19 2.13723e-20 2.58647e-20 7.17826e-26 6.46023e-08 0.231276 0.0320825 0.967917 
285 7.11614e-19 2.56197e-20 3.14983e-20 7.17533e-26 7.86013e-08 0.299182 0.0328093 0.967191 
295 7.00807e-19 2.58339e-20 3.18933e-20 7.17487e-26 7.56847e-08 0.289589 0.0329238 0.967076 
305 7.25134e-19 2.47598e-20 3.07384e-20 7.17658e-26 7.292e-08 0.275317 0.0324988 0.967501 
315 7.63915e-19 2.34806e-20 2.86891e-20 7.17684e-26 6.88054e-08 0.253339 0.0324343 0.967566 
325 8.1336e-19 2.16002e-20 2.61183e-20 7.17954e-26 6.43031e-08 0.225694 0.0317662 0.968234 
335 8.65865e-19 1.94118e-20 2.30228e-20 7.18071e-26 5.97315e-08 0.196301 0.0314748 0.968525 
345 9.30274e-19 1.62211e-20 1.87897e-20 7.18236e-26 5.49723e-08 0.162283 0.0310659 0.968934 
355 6.78626e-19 2.69521e-20 3.29743e-20 7.17647e-26 8.31678e-08 0.316327 0.0325275 0.967472 
365 6.70334e-19 2.72756e-20 3.34504e-20 7.17487e-26 7.99775e-08 0.305471 0.0329249 0.967075 
375 7.0008e-19 2.6403e-20 3.14953e-20 7.17711e-26 7.62104e-08 0.28868 0.0323676 0.967632 
385 7.35193e-19 2.50528e-20 3.07061e-20 7.17943e-26 7.22219e-08 0.2685 0.0317932 0.968207 
395 7.82011e-19 2.32552e-20 2.84834e-20 7.17946e-26 6.73344e-08 0.242197 0.0317845 0.968215 
405 8.39514e-19 2.08548e-20 2.4737e-20 7.17652e-26 6.21189e-08 0.209696 0.0325141 0.967486 
415 9.0547e-19 1.75354e-20 2.0806e-20 7.18078e-26 5.69201e-08 0.175088 0.0314578 0.968542 
425 6.58548e-19 2.73733e-20 3.47104e-20 7.17574e-26 8.64311e-08 0.325691 0.0327089 0.967291 
435 6.53572e-19 2.7865e-20 3.45193e-20 7.17416e-26 8.28372e-08 0.312926 0.0330992 0.966901 
445 6.78151e-19 2.75416e-20 3.39661e-20 7.1782e-26 7.93672e-08 0.298702 0.0320963 0.967904 
265 9.01363e-19 1.76031e-20 2.102e-20 7.18087e-26 5.72258e-08 0.178707 0.031435 0.968565 
275 9.62285e-19 1.47579e-20 1.70554e-20 7.18243e-26 5.29641e-08 0.145928 0.0310493 0.968951 
7 6.44989e-19 2.56389e-20 3.12335e-20 7.18184e-26 8.63925e-08 0.327886 0.0311955 0.968804 
8 4.59711e-19 3.04335e-20 3.88811e-20 7.188e-26 1.30401e-07 0.432622 0.0296713 0.970329 
17 6.52862e-19 2.53196e-20 3.11109e-20 7.18177e-26 8.35421e-08 0.316355 0.0312118 0.968788 
18 4.76795e-19 3.01753e-20 3.82111e-20 7.19021e-26 1.22728e-07 0.412949 0.0291237 0.970876 
27 6.89516e-19 2.40463e-20 2.93288e-20 7.18363e-26 7.85662e-08 0.295122 0.0307522 0.969248 
28 5.22869e-19 2.92628e-20 3.75379e-20 7.18965e-26 1.10115e-07 0.382085 0.029262 0.970738 
37 7.44009e-19 2.23825e-20 2.7166e-20 7.18504e-26 7.21502e-08 0.263258 0.0304024 0.969598 
38 5.9636e-19 2.70725e-20 3.44974e-20 7.188e-26 9.46303e-08 0.337047 0.0296697 0.97033 
47 8.08815e-19 2.01776e-20 2.42808e-20 7.18437e-26 6.54432e-08 0.225449 0.030569 0.969431 
48 6.90633e-19 2.47794e-20 3.11619e-20 7.18761e-26 7.98544e-08 0.282177 0.0297676 0.970232 
57 8.84736e-19 1.75958e-20 2.05435e-20 7.18371e-26 5.91159e-08 0.184065 0.0307315 0.969268 
58 7.92783e-19 2.16658e-20 2.6865e-20 7.18802e-26 6.80327e-08 0.226205 0.0296643 0.970336 
67 9.60536e-19 1.45977e-20 1.66344e-20 7.18434e-26 5.37577e-08 0.144406 0.0305764 0.969424 
68 8.94577e-19 1.80397e-20 2.13009e-20 7.18832e-26 5.89367e-08 0.173385 0.0295901 0.97041 
77 5.30517e-19 3.13054e-20 3.95122e-20 7.18346e-26 1.10233e-07 0.402264 0.0307952 0.969205 
78 3.34036e-19 3.58384e-20 4.69299e-20 7.19202e-26 1.94027e-07 0.531473 0.0286759 0.971324 
87 5.28915e-19 3.09978e-20 3.94178e-20 7.18458e-26 1.05116e-07 0.382857 0.0305168 0.969483 
88 3.36779e-19 3.56336e-20 4.60753e-20 7.19314e-26 1.82251e-07 0.500452 0.0283994 0.971601 
97 5.60059e-19 2.99665e-20 3.76466e-20 7.18406e-26 9.81711e-08 0.361553 0.0306443 0.969356 
98 3.7383e-19 3.43034e-20 4.49438e-20 7.19206e-26 1.59914e-07 0.467213 0.0286661 0.971334 
107 6.17012e-19 2.80269e-20 3.4931e-20 7.18527e-26 8.8048e-08 0.327145 0.030345 0.969655 
108 4.406e-19 3.31028e-20 4.24382e-20 7.19285e-26 1.3213e-07 0.420515 0.0284714 0.971529 
117 6.91989e-19 2.57272e-20 3.12934e-20 7.18469e-26 7.73764e-08 0.283001 0.0304899 0.96951 
118 5.3635e-19 3.10186e-20 3.95173e-20 7.19173e-26 1.05305e-07 0.359252 0.0287476 0.971252 
127 7.78566e-19 2.25535e-20 2.77729e-20 7.18485e-26 6.76856e-08 0.235036 0.0304497 0.96955 
128 6.52968e-19 2.76584e-20 3.51617e-20 7.19081e-26 8.37169e-08 0.291306 0.0289769 0.971023 
137 8.75914e-19 1.86836e-20 2.25111e-20 7.18506e-26 5.91059e-08 0.18415 0.0303973 0.969603 
138 7.79606e-19 2.3263e-20 2.905e-20 7.18916e-26 6.82358e-08 0.225477 0.0293825 0.970617 
147 4.43438e-19 3.5118e-20 4.52757e-20 7.1852e-26 1.39164e-07 0.469787 0.0303644 0.969636 
148 2.53289e-19 3.85819e-20 5.07209e-20 7.19647e-26 2.81445e-07 0.623278 0.0275771 0.972423 
157 4.37747e-19 3.48221e-20 4.52023e-20 7.18615e-26 1.3177e-07 0.441379 0.0301277 0.969872 
158 2.5425e-19 3.84704e-20 5.07597e-20 7.19836e-26 2.60879e-07 0.577525 0.0271112 0.972889 
167 4.70019e-19 3.40492e-20 4.31875e-20 7.18558e-26 1.20943e-07 0.417049 0.0302697 0.96973 
168 2.85145e-19 3.75705e-20 4.95343e-20 7.19681e-26 2.24664e-07 0.541157 0.0274952 0.972505 
177 5.2106e-19 3.21227e-20 4.05866e-20 7.18516e-26 1.07207e-07 0.382414 0.0303731 0.969627 
178 3.36717e-19 3.63316e-20 4.74345e-20 7.19531e-26 1.83151e-07 0.493672 0.0278631 0.972137 
187 5.91477e-19 2.97952e-20 3.75922e-20 7.18687e-26 9.25389e-08 0.337272 0.0299502 0.97005 
188 4.18359e-19 3.47096e-20 4.51398e-20 7.19414e-26 1.41061e-07 0.430115 0.0281533 0.971847 
197 6.87465e-19 2.63405e-20 3.36526e-20 7.18634e-26 7.81112e-08 0.282325 0.030081 0.969919 
198 5.34344e-19 3.1837e-20 4.16349e-20 7.19135e-26 1.05928e-07 0.355285 0.0288422 0.971158 
207 7.94122e-19 2.22689e-20 2.78991e-20 7.18397e-26 6.60666e-08 0.224626 0.0306671 0.969333 
208 6.73356e-19 2.77488e-20 3.53656e-20 7.19094e-26 8.06234e-08 0.276934 0.0289434 0.971057 
307 3.50404e-19 3.82131e-20 5.06711e-20 7.19158e-26 1.75472e-07 0.501613 0.0287855 0.971214 
308 1.81477e-19 3.83367e-20 5.08681e-20 7.20453e-26 4.10736e-07 0.662442 0.0255917 0.974408 
317 4.02072e-19 3.73326e-20 4.87168e-20 7.18882e-26 1.48826e-07 0.461871 0.0294668 0.970533 
318 2.28499e-19 3.94211e-20 5.2438e-20 7.20236e-26 3.06771e-07 0.601152 0.0261264 0.973874 
327 4.66923e-19 3.54791e-20 4.56543e-20 7.18851e-26 1.24496e-07 0.415406 0.0295431 0.970457 
328 2.89555e-19 3.88075e-20 5.13891e-20 7.19926e-26 2.27204e-07 0.534621 0.026889 0.973111 