ITEM: TIMESTEP
11000
ITEM: NUMBER OF CELLS
11858
ITEM: BOX BOUNDS oo ro oo
-2.505 0.895
0 2.5
-2.5 2.5
ITEM: CELLS id f_2[1] f_2[2] f_2[3] f_2[4] f_2[5] f_2[6] f_2[7] f_2[8] 
1 1.18283e-18 4.18303e-21 2.62491e-21 7.18626e-26 4.21701e-08 0.0327026 0.0301017 0.969898 
2 1.14961e-18 5.71561e-21 4.27967e-21 7.18497e-26 4.38759e-08 0.0512978 0.0304195 0.969581 
3 1.10372e-18 7.41652e-21 7.2714e-21 7.18209e-26 4.60944e-08 0.076661 0.0311329 0.968867 
4 1.03812e-18 1.06125e-20 1.06897e-20 7.18102e-26 4.94546e-08 0.112874 0.0313992 0.968601 
11 1.18298e-18 4.28098e-21 2.54457e-21 7.18611e-26 4.18948e-08 0.0322799 0.0301373 0.969863 
12 1.14965e-18 5.74852e-21 4.57315e-21 7.18497e-26 4.32838e-08 0.0502696 0.0304202 0.96958 
13 1.1053e-18 7.51981e-21 7.09649e-21 7.18298e-26 4.52566e-08 0.0746489 0.0309128 0.969087 
14 1.03543e-18 1.06404e-20 1.0928e-20 7.17956e-26 4.87195e-08 0.112136 0.0317607 0.968239 
21 1.18255e-18 4.31172e-21 2.38111e-21 7.18718e-26 4.18985e-08 0.0323638 0.0298742 0.970126 
22 1.15092e-18 5.64969e-21 4.3652e-21 7.18615e-26 4.32303e-08 0.0496323 0.0301272 0.969873 
23 1.10774e-18 7.49988e-21 6.77507e-21 7.18458e-26 4.50907e-08 0.073026 0.0305163 0.969484 
24 1.04362e-18 1.03468e-20 1.05765e-20 7.18035e-26 4.82435e-08 0.106869 0.0315648 0.968435 
31 1.18587e-18 4.03377e-21 2.26725e-21 7.18644e-26 4.18176e-08 0.0306287 0.0300574 0.969943 
32 1.16023e-18 5.32951e-21 3.68458e-21 7.18485e-26 4.28593e-08 0.0445309 0.030451 0.969549 
33 1.12013e-18 7.12687e-21 6.21878e-21 7.18275e-26 4.46286e-08 0.0661625 0.0309709 0.969029 
34 1.06323e-18 9.3505e-21 9.67656e-21 7.18249e-26 4.74055e-08 0.0966661 0.0310347 0.968965 
41 1.19102e-18 4.0269e-21 2.15423e-21 7.18659e-26 4.16726e-08 0.0278083 0.03002 0.96998 
42 1.1651e-18 5.00235e-21 3.8537e-21 7.18602e-26 4.2729e-08 0.0417362 0.0301594 0.969841 
43 1.13136e-18 6.49875e-21 5.84437e-21 7.18512e-26 4.41527e-08 0.059911 0.0303824 0.969618 
44 1.08043e-18 8.75432e-21 8.60215e-21 7.18436e-26 4.65221e-08 0.0868119 0.0305714 0.969429 
51 1.19539e-18 3.68149e-21 2.00507e-21 7.18631e-26 4.14056e-08 0.0249865 0.0300882 0.969912 
52 1.17259e-18 4.75768e-21 3.42949e-21 7.18454e-26 4.23844e-08 0.0372763 0.0305264 0.969474 
53 1.14226e-18 6.22232e-21 5.0623e-21 7.1843e-26 4.36678e-08 0.0533421 0.0305855 0.969414 
54 1.10441e-18 7.69696e-21 7.33816e-21 7.18448e-26 4.53859e-08 0.0739521 0.0305409 0.969459 
61 1.2002e-18 3.57977e-21 1.70142e-21 7.18663e-26 4.12865e-08 0.0224559 0.0300091 0.969991 
62 1.18195e-18 4.40755e-21 2.97153e-21 7.18782e-26 4.20809e-08 0.032423 0.0297152 0.970285 
63 1.15929e-18 5.43564e-21 4.18421e-21 7.18594e-26 4.29779e-08 0.0444203 0.0301809 0.969819 
64 1.13089e-18 6.74103e-21 6.11767e-21 7.18489e-26 4.41869e-08 0.0595931 0.0304401 0.96956 
71 1.16902e-18 4.76336e-21 3.0557e-21 7.18454e-26 4.27315e-08 0.0402021 0.0305263 0.969474 
72 1.13099e-18 6.58001e-21 5.31302e-21 7.18245e-26 4.48771e-08 0.0613544 0.0310444 0.968956 
73 1.07359e-18 9.26269e-21 9.04229e-21 7.18077e-26 4.81273e-08 0.0937554 0.0314609 0.968539 
74 9.8752e-19 1.30749e-20 1.4166e-20 7.17924e-26 5.33284e-08 0.141779 0.0318406 0.968159 
81 1.17278e-18 4.72379e-21 3.01083e-21 7.1849e-26 4.23654e-08 0.0380019 0.0304366 0.969563 
82 1.13085e-18 6.81957e-21 5.5029e-21 7.18574e-26 4.41289e-08 0.0608784 0.0302293 0.969771 
83 1.0717e-18 9.19408e-21 8.94709e-21 7.18198e-26 4.67619e-08 0.0915233 0.0311599 0.96884 
84 9.85619e-19 1.29518e-20 1.37093e-20 7.17789e-26 5.12907e-08 0.137158 0.0321734 0.967827 
91 1.17003e-18 4.73711e-21 2.93312e-21 7.18357e-26 4.24644e-08 0.0395326 0.0307678 0.969232 
92 1.13151e-18 6.50304e-21 5.24605e-21 7.18032e-26 4.39548e-08 0.0594729 0.0315716 0.968428 
93 1.07538e-18 9.22847e-21 8.61707e-21 7.17915e-26 4.64829e-08 0.0895574 0.0318612 0.968139 
94 9.94183e-19 1.31063e-20 1.42451e-20 7.18091e-26 5.06932e-08 0.132053 0.0314268 0.968573 
101 1.17526e-18 4.33409e-21 2.82679e-21 7.18434e-26 4.22585e-08 0.0363841 0.0305753 0.969425 
102 1.13971e-18 6.02967e-21 4.88545e-21 7.18336e-26 4.37578e-08 0.0555888 0.030819 0.969181 
103 1.08784e-18 8.72482e-21 8.44549e-21 7.18189e-26 4.60022e-08 0.0826895 0.0311832 0.968817 
104 1.01629e-18 1.22128e-20 1.2668e-20 7.18055e-26 4.95463e-08 0.119325 0.031516 0.968484 
111 1.18001e-18 4.35006e-21 2.72185e-21 7.18584e-26 4.20521e-08 0.0340306 0.0302058 0.969794 
112 1.14736e-18 6.12506e-21 4.7424e-21 7.18446e-26 4.33374e-08 0.0510726 0.0305454 0.969455 
113 1.10155e-18 8.41362e-21 7.85567e-21 7.18403e-26 4.52944e-08 0.0750065 0.0306534 0.969347 
114 1.03864e-18 1.12372e-20 1.1572e-20 7.1835e-26 4.84931e-08 0.108277 0.0307842 0.969216 
121 1.18646e-18 4.04408e-21 2.45568e-21 7.18616e-26 4.18233e-08 0.0298102 0.0301253 0.969875 
122 1.15918e-18 5.58344e-21 4.24929e-21 7.18556e-26 4.2931e-08 0.0443566 0.0302737 0.969726 
123 1.12042e-18 7.3117e-21 7.11071e-21 7.18515e-26 4.45103e-08 0.0646236 0.0303749 0.969625 
124 1.06731e-18 9.78083e-21 9.62775e-21 7.18388e-26 4.6938e-08 0.0923377 0.0306902 0.96931 
131 1.19312e-18 3.8377e-21 1.81874e-21 7.18723e-26 4.1543e-08 0.0262776 0.0298612 0.970139 
132 1.16973e-18 5.21179e-21 3.74596e-21 7.18607e-26 4.24042e-08 0.0383627 0.0301468 0.969853 
133 1.14093e-18 6.51837e-21 5.31489e-21 7.18612e-26 4.36631e-08 0.0540659 0.0301349 0.969865 
134 1.09935e-18 8.45076e-21 7.50814e-21 7.18524e-26 4.55563e-08 0.0758331 0.030352 0.969648 
141 1.1593e-18 5.26332e-21 3.7181e-21 7.18409e-26 4.31859e-08 0.046297 0.0306372 0.969363 
142 1.10954e-18 7.4839e-21 6.72008e-21 7.1811e-26 4.59184e-08 0.0731283 0.0313784 0.968622 
143 1.04133e-18 1.08681e-20 1.09536e-20 7.17784e-26 4.97575e-08 0.110609 0.0321859 0.967814 
144 9.45904e-19 1.53083e-20 1.64949e-20 7.17797e-26 5.6014e-08 0.164679 0.0321556 0.967844 
151 1.15961e-18 5.32836e-21 3.8175e-21 7.18458e-26 4.28338e-08 0.0453349 0.0305167 0.969483 
152 1.10991e-18 7.76434e-21 6.82961e-21 7.18117e-26 4.49521e-08 0.0710424 0.0313615 0.968639 
153 1.0427e-18 1.09406e-20 1.10017e-20 7.17996e-26 4.82007e-08 0.106868 0.03166 0.96834 
154 9.40266e-19 1.5023e-20 1.75394e-20 7.17946e-26 5.41743e-08 0.161572 0.0317848 0.968215 
161 1.16265e-18 4.94182e-21 3.47323e-21 7.18398e-26 4.277e-08 0.0435122 0.0306658 0.969334 
162 1.11647e-18 7.6058e-21 6.77881e-21 7.18203e-26 4.48858e-08 0.0681452 0.0311477 0.968852 
163 1.04978e-18 1.06409e-20 1.09482e-20 7.17937e-26 4.79753e-08 0.103351 0.0318081 0.968192 
164 9.53117e-19 1.46121e-20 1.62855e-20 7.17665e-26 5.33486e-08 0.15431 0.0324823 0.967518 
171 1.16405e-18 5.20441e-21 3.5207e-21 7.18325e-26 4.26766e-08 0.0426423 0.030847 0.969153 
172 1.1203e-18 7.14878e-21 6.45456e-21 7.18306e-26 4.45321e-08 0.0657073 0.0308924 0.969108 
173 1.05834e-18 9.92595e-21 9.99303e-21 7.18462e-26 4.75097e-08 0.0988646 0.0305077 0.969492 
174 9.73089e-19 1.3657e-20 1.48752e-20 7.18068e-26 5.21737e-08 0.14352 0.0314828 0.968517 
181 1.17279e-18 4.73666e-21 2.94921e-21 7.18606e-26 4.23587e-08 0.0380776 0.0301496 0.96985 
182 1.13156e-18 6.85544e-21 5.94864e-21 7.18565e-26 4.41595e-08 0.0596762 0.0302511 0.969749 
183 1.07607e-18 9.3545e-21 9.24166e-21 7.18267e-26 4.67294e-08 0.0886447 0.0309892 0.969011 
184 1.00339e-18 1.32435e-20 1.39506e-20 7.18232e-26 5.05577e-08 0.126813 0.0310762 0.968924 
191 1.179e-18 4.55358e-21 2.63837e-21 7.18682e-26 4.21497e-08 0.0345339 0.0299612 0.970039 
192 1.14335e-18 6.2109e-21 5.00099e-21 7.18465e-26 4.36984e-08 0.0533935 0.0304988 0.969501 
193 1.09865e-18 8.17396e-21 7.79375e-21 7.18435e-26 4.56319e-08 0.0761266 0.0305726 0.969427 
194 1.03334e-18 1.14647e-20 1.21299e-20 7.18028e-26 4.88854e-08 0.109885 0.0315816 0.968418 
201 1.18676e-18 4.14335e-21 2.37876e-21 7.18589e-26 4.17743e-08 0.0299379 0.0301933 0.969807 
202 1.16001e-18 5.63418e-21 4.23275e-21 7.18444e-26 4.28989e-08 0.0437529 0.0305502 0.96945 
203 1.12258e-18 7.58112e-21 6.84692e-21 7.18212e-26 4.44099e-08 0.0632623 0.0311264 0.968874 
204 1.07016e-18 1.00532e-20 9.92136e-21 7.18176e-26 4.68402e-08 0.0904066 0.0312154 0.968785 
262 1.13244e-18 6.69441e-21 5.85213e-21 7.18511e-26 4.39755e-08 0.0588258 0.0303865 0.969613 
263 1.07744e-18 9.25918e-21 9.21191e-21 7.18221e-26 4.66318e-08 0.0876604 0.0311044 0.968896 
264 1.00522e-18 1.28397e-20 1.4384e-20 7.18114e-26 5.04021e-08 0.124821 0.0313683 0.968632 
271 1.17885e-18 4.31496e-21 2.60748e-21 7.18523e-26 4.21079e-08 0.0341251 0.0303564 0.969644 
272 1.14905e-18 6.15579e-21 4.92917e-21 7.18555e-26 4.33727e-08 0.0496516 0.0302759 0.969724 
273 1.10471e-18 8.27114e-21 7.62973e-21 7.18398e-26 4.53531e-08 0.0730788 0.0306654 0.969335 
274 1.04695e-18 1.08676e-20 1.20117e-20 7.18462e-26 4.80813e-08 0.103043 0.0305066 0.969493 
211 1.14937e-18 5.60375e-21 4.44675e-21 7.18317e-26 4.34971e-08 0.0515415 0.0308667 0.969133 
212 1.09378e-18 8.53414e-21 8.30871e-21 7.17962e-26 4.64888e-08 0.0812084 0.0317459 0.968254 
213 1.01949e-18 1.2003e-20 1.27541e-20 7.17816e-26 5.09745e-08 0.122634 0.0321082 0.967892 
214 9.07557e-19 1.68959e-20 1.91602e-20 7.17683e-26 5.88151e-08 0.185569 0.0324382 0.967562 
221 1.14824e-18 5.81795e-21 4.44404e-21 7.18299e-26 4.3413e-08 0.0519204 0.0309113 0.969089 
222 1.09239e-18 8.6997e-21 7.907e-21 7.18083e-26 4.59302e-08 0.0813811 0.0314456 0.968554 
223 1.01174e-18 1.23357e-20 1.28499e-20 7.17784e-26 4.99253e-08 0.123316 0.0321863 0.967814 
224 9.038e-19 1.72055e-20 1.92988e-20 7.17731e-26 5.66494e-08 0.181006 0.0323174 0.967683 
231 1.15091e-18 5.54874e-21 4.37227e-21 7.18325e-26 4.31935e-08 0.0498996 0.0308449 0.969155 
232 1.09948e-18 8.08752e-21 7.60954e-21 7.18216e-26 4.53883e-08 0.0771155 0.0311148 0.968885 
233 1.02516e-18 1.2028e-20 1.20462e-20 7.18048e-26 4.92352e-08 0.116209 0.0315322 0.968468 
234 9.15166e-19 1.67652e-20 1.88367e-20 7.17576e-26 5.59018e-08 0.174234 0.0327028 0.967297 
241 1.15669e-18 5.31514e-21 4.0713e-21 7.18372e-26 4.29638e-08 0.0467934 0.0307289 0.969271 
242 1.10917e-18 7.82995e-21 7.17277e-21 7.18224e-26 4.50344e-08 0.0717511 0.0310949 0.968905 
243 1.03899e-18 1.13859e-20 1.13442e-20 7.1813e-26 4.84442e-08 0.108598 0.0313298 0.96867 
244 9.38983e-19 1.55665e-20 1.74841e-20 7.17886e-26 5.42488e-08 0.160856 0.0319348 0.968065 
251 1.16249e-18 5.18777e-21 3.5992e-21 7.18414e-26 4.27864e-08 0.0435367 0.0306262 0.969374 
252 1.11915e-18 7.39893e-21 6.40784e-21 7.18087e-26 4.47629e-08 0.0663389 0.0314355 0.968564 
253 1.06026e-18 1.07404e-20 9.66445e-21 7.18007e-26 4.74982e-08 0.0968872 0.0316329 0.968367 
254 9.69747e-19 1.44972e-20 1.53346e-20 7.1794e-26 5.24428e-08 0.143982 0.0318 0.9682 
261 1.17204e-18 4.69885e-21 3.3764e-21 7.18494e-26 4.23517e-08 0.03812 0.0304274 0.969573 
281 1.13913e-18 5.91114e-21 4.74076e-21 7.18539e-26 4.40947e-08 0.0572251 0.0303161 0.969684 
282 1.07882e-18 9.29278e-21 8.99562e-21 7.18344e-26 4.7443e-08 0.0894997 0.030798 0.969202 
176 6.99371e-19 2.57482e-20 3.17133e-20 7.18313e-26 7.59089e-08 0.286299 0.0308767 0.969123 
186 7.59298e-19 2.33976e-20 2.8057e-20 7.18168e-26 6.90766e-08 0.251188 0.031236 0.968764 
196 8.27126e-19 2.03551e-20 2.50501e-20 7.18009e-26 6.26837e-08 0.213093 0.0316286 0.968371 
206 9.06449e-19 1.68835e-20 2.03417e-20 7.18372e-26 5.65329e-08 0.171714 0.0307284 0.969272 
255 8.46789e-19 1.98918e-20 2.36443e-20 7.17944e-26 6.10787e-08 0.207413 0.0317908 0.968209 
5 9.39911e-19 1.46323e-20 1.58372e-20 7.17936e-26 5.54158e-08 0.166581 0.0318103 0.96819 
15 9.37748e-19 1.45969e-20 1.58281e-20 7.1794e-26 5.46171e-08 0.164226 0.0318011 0.968199 
25 9.5791e-19 1.3655e-20 1.53269e-20 7.18109e-26 5.32355e-08 0.152916 0.0313805 0.96862 
35 9.83569e-19 1.31892e-20 1.40194e-20 7.18206e-26 5.17633e-08 0.13895 0.0311412 0.968859 
45 1.0132e-18 1.16467e-20 1.23806e-20 7.18267e-26 5.00856e-08 0.122475 0.0309896 0.96901 
55 1.04545e-18 1.04704e-20 1.09177e-20 7.18384e-26 4.83189e-08 0.104503 0.0306995 0.9693 
65 1.08268e-18 8.76235e-21 8.49664e-21 7.18294e-26 4.64737e-08 0.084921 0.0309229 0.969077 
75 8.71749e-19 1.86585e-20 2.09257e-20 7.17717e-26 6.1709e-08 0.206258 0.0323536 0.967646 
85 8.65575e-19 1.7888e-20 2.13238e-20 7.17635e-26 5.9299e-08 0.200312 0.0325562 0.967444 
95 8.84466e-19 1.81666e-20 1.96072e-20 7.17958e-26 5.78162e-08 0.188815 0.0317559 0.968244 
105 9.11989e-19 1.68911e-20 1.93516e-20 7.18239e-26 5.59438e-08 0.173904 0.0310601 0.96894 
115 9.51593e-19 1.50705e-20 1.65261e-20 7.18347e-26 5.35496e-08 0.152759 0.0307913 0.969209 
125 9.95424e-19 1.33436e-20 1.40721e-20 7.1817e-26 5.09415e-08 0.129124 0.0312295 0.968771 
135 1.04012e-18 1.10141e-20 1.16348e-20 7.18282e-26 4.84884e-08 0.105751 0.0309532 0.969047 
145 8.14482e-19 2.07743e-20 2.45901e-20 7.17709e-26 6.70499e-08 0.239997 0.0323721 0.967628 
155 8.02793e-19 2.09358e-20 2.54058e-20 7.17863e-26 6.47198e-08 0.23507 0.0319918 0.968008 
165 8.22706e-19 2.04861e-20 2.3583e-20 7.17371e-26 6.28528e-08 0.222872 0.0332106 0.966789 
175 8.55197e-19 1.92445e-20 2.22773e-20 7.18134e-26 6.03032e-08 0.20469 0.0313187 0.968681 
185 8.98827e-19 1.79097e-20 1.98086e-20 7.1808e-26 5.7156e-08 0.180402 0.0314541 0.968546 
195 9.46976e-19 1.57157e-20 1.74073e-20 7.18253e-26 5.37998e-08 0.153582 0.0310242 0.968976 
205 1.00095e-18 1.28258e-20 1.45636e-20 7.18556e-26 5.04545e-08 0.125238 0.0302749 0.969725 
6 8.10275e-19 1.937e-20 2.33424e-20 7.17938e-26 6.58294e-08 0.236432 0.0318052 0.968195 
16 8.12798e-19 1.92958e-20 2.20846e-20 7.17938e-26 6.44069e-08 0.230561 0.031805 0.968195 
26 8.42193e-19 1.84558e-20 2.14958e-20 7.1808e-26 6.1952e-08 0.214252 0.0314523 0.968548 
36 8.74232e-19 1.74204e-20 1.97259e-20 7.18123e-26 5.92657e-08 0.195137 0.0313456 0.968654 
46 9.18992e-19 1.56643e-20 1.79948e-20 7.18364e-26 5.61809e-08 0.170654 0.0307499 0.96925 
56 9.70989e-19 1.39029e-20 1.54521e-20 7.1846e-26 5.27565e-08 0.142097 0.0305125 0.969487 
66 1.02864e-18 1.13376e-20 1.22278e-20 7.18539e-26 4.94498e-08 0.112 0.0303173 0.969683 
76 7.15067e-19 2.44361e-20 2.97671e-20 7.17823e-26 7.75919e-08 0.294832 0.0320895 0.967911 
86 7.08593e-19 2.44638e-20 2.98468e-20 7.18019e-26 7.45825e-08 0.28449 0.0316046 0.968395 
96 7.344e-19 2.42799e-20 2.81094e-20 7.18037e-26 7.15403e-08 0.268639 0.0315605 0.96844 
106 7.77426e-19 2.23817e-20 2.60393e-20 7.18127e-26 6.71364e-08 0.243382 0.0313369 0.968663 
116 8.31371e-19 2.02886e-20 2.37446e-20 7.18242e-26 6.25805e-08 0.214575 0.0310518 0.968948 
126 8.95515e-19 1.79541e-20 2.03452e-20 7.1826e-26 5.75472e-08 0.179021 0.0310066 0.968993 
136 9.63866e-19 1.44593e-20 1.63129e-20 7.18271e-26 5.29251e-08 0.143757 0.0309794 0.969021 
146 6.40937e-19 2.78388e-20 3.51136e-20 7.17658e-26 8.92773e-08 0.343368 0.0324993 0.967501 
156 6.28988e-19 2.83249e-20 3.56843e-20 7.17728e-26 8.5425e-08 0.328262 0.0323253 0.967675 
166 6.55437e-19 2.69356e-20 3.38313e-20 7.17807e-26 8.1551e-08 0.312019 0.0321309 0.967869 
283 9.95516e-19 1.30675e-20 1.39447e-20 7.18055e-26 5.24416e-08 0.135637 0.0315151 0.968485 
284 8.75683e-19 1.87117e-20 2.17627e-20 7.17661e-26 6.12272e-08 0.203243 0.0324924 0.967508 
291 1.14111e-18 6.07341e-21 4.9711e-21 7.18195e-26 4.35752e-08 0.055466 0.0311687 0.968831 
292 1.07875e-18 9.13022e-21 9.24849e-21 7.17974e-26 4.64275e-08 0.0880815 0.0317163 0.968284 
293 9.91742e-19 1.33896e-20 1.47244e-20 7.17835e-26 5.10611e-08 0.133579 0.032061 0.967939 
294 8.69184e-19 1.89029e-20 2.14579e-20 7.17743e-26 5.93426e-08 0.199306 0.0322875 0.967712 
301 1.14254e-18 5.91223e-21 4.61023e-21 7.18406e-26 4.36459e-08 0.054725 0.0306449 0.969355 
302 1.0841e-18 9.14422e-21 8.56231e-21 7.18159e-26 4.63573e-08 0.0854767 0.0312562 0.968744 
303 1.00208e-18 1.27817e-20 1.36584e-20 7.17903e-26 5.05464e-08 0.12868 0.0318925 0.968107 
304 8.85345e-19 1.82103e-20 2.09028e-20 7.17907e-26 5.82048e-08 0.19031 0.0318821 0.968118 
311 1.15042e-18 5.63527e-21 4.3637e-21 7.18471e-26 4.32568e-08 0.0505578 0.0304856 0.969514 
312 1.09579e-18 8.50187e-21 8.15344e-21 7.18254e-26 4.57209e-08 0.079327 0.0310221 0.968978 
313 1.01648e-18 1.2353e-20 1.30395e-20 7.17857e-26 4.97651e-08 0.12022 0.0320056 0.967994 
314 9.09618e-19 1.72756e-20 1.96605e-20 7.1756e-26 5.6275e-08 0.175558 0.0327422 0.967258 
321 1.15609e-18 5.29261e-21 4.02114e-21 7.1837e-26 4.30018e-08 0.0468261 0.030734 0.969266 
322 1.10554e-18 7.88355e-21 7.81577e-21 7.18163e-26 4.50757e-08 0.0727897 0.0312479 0.968752 
323 1.03707e-18 1.12569e-20 1.16583e-20 7.17983e-26 4.86468e-08 0.108991 0.0316928 0.968307 
324 9.43924e-19 1.58862e-20 1.80218e-20 7.17782e-26 5.41826e-08 0.15765 0.0321927 0.967807 
331 1.16523e-18 4.90464e-21 3.53672e-21 7.18331e-26 4.26875e-08 0.0419067 0.0308323 0.969168 
332 1.1234e-18 7.15009e-21 6.0666e-21 7.17793e-26 4.44095e-08 0.0634917 0.0321653 0.967835 
333 1.06305e-18 1.02012e-20 1.02538e-20 7.1781e-26 4.72351e-08 0.0946182 0.0321235 0.967876 
334 9.79663e-19 1.44851e-20 1.55677e-20 7.17849e-26 5.19028e-08 0.138181 0.0320262 0.967974 
341 1.17672e-18 4.54189e-21 3.00472e-21 7.18736e-26 4.23079e-08 0.0359417 0.0298289 0.970171 
342 1.14222e-18 6.39868e-21 5.30424e-21 7.18478e-26 4.37429e-08 0.0538504 0.0304677 0.969532 
343 1.09346e-18 8.75729e-21 8.29722e-21 7.18066e-26 4.58769e-08 0.0792857 0.0314884 0.968512 
344 1.02748e-18 1.19341e-20 1.2509e-20 7.18143e-26 4.92329e-08 0.113129 0.0312963 0.968704 
351 1.13693e-18 6.01708e-21 4.87523e-21 7.18196e-26 4.40786e-08 0.0582962 0.0311651 0.968835 
352 1.06954e-18 9.4649e-21 9.14724e-21 7.17691e-26 4.78467e-08 0.0943765 0.0324182 0.967582 
353 9.78555e-19 1.36091e-20 1.47994e-20 7.17611e-26 5.35929e-08 0.144663 0.0326165 0.967383 
354 8.51367e-19 1.94189e-20 2.2942e-20 7.17562e-26 6.34838e-08 0.216109 0.0327385 0.967261 
361 1.13394e-18 6.23558e-21 5.17856e-21 7.183e-26 4.4018e-08 0.059684 0.030909 0.969091 
362 1.06896e-18 9.54944e-21 9.47931e-21 7.18135e-26 4.71305e-08 0.0932507 0.0313165 0.968683 
363 9.77596e-19 1.38776e-20 1.48551e-20 7.17925e-26 5.21636e-08 0.141331 0.0318381 0.968162 
364 8.44246e-19 1.97507e-20 2.27038e-20 7.17573e-26 6.1402e-08 0.211249 0.0327108 0.967289 
371 1.13827e-18 6.09795e-21 4.90528e-21 7.18292e-26 4.38028e-08 0.0572244 0.0309279 0.969072 
372 1.07662e-18 9.35959e-21 8.97428e-21 7.18071e-26 4.6713e-08 0.0890381 0.0314742 0.968526 
373 9.85195e-19 1.3671e-20 1.48862e-20 7.17475e-26 5.16062e-08 0.136784 0.0329542 0.967046 
374 8.60374e-19 1.95792e-20 2.28341e-20 7.17817e-26 6.00333e-08 0.20215 0.0321052 0.967895 
381 1.14453e-18 5.95005e-21 4.62439e-21 7.18263e-26 4.35868e-08 0.0531527 0.0309993 0.969001 
382 1.08356e-18 8.80721e-21 8.50485e-21 7.18046e-26 4.63906e-08 0.0850662 0.0315379 0.968462 
383 1.0006e-18 1.27973e-20 1.3881e-20 7.17961e-26 5.07173e-08 0.128428 0.0317471 0.968253 
384 8.88246e-19 1.83222e-20 2.10552e-20 7.17935e-26 5.8233e-08 0.187556 0.0318123 0.968188 
391 1.15139e-18 5.61168e-21 4.21998e-21 7.18296e-26 4.33153e-08 0.0495679 0.0309175 0.969083 
392 1.09832e-18 8.27509e-21 7.88702e-21 7.1809e-26 4.5775e-08 0.0775499 0.0314283 0.968572 
393 1.02117e-18 1.22301e-20 1.37102e-20 7.18029e-26 4.9607e-08 0.117076 0.0315805 0.96842 
394 9.20227e-19 1.70792e-20 1.96425e-20 7.17971e-26 5.57489e-08 0.169747 0.0317231 0.968277 
401 1.16223e-18 5.11119e-21 3.62124e-21 7.18474e-26 4.28193e-08 0.0437374 0.0304763 0.969524 
402 1.11271e-18 8.00525e-21 7.2591e-21 7.18323e-26 4.50171e-08 0.0694587 0.0308502 0.96915 
403 1.0524e-18 1.08226e-20 1.15714e-20 7.18263e-26 4.78927e-08 0.1005 0.0309986 0.969001 
404 9.60808e-19 1.53147e-20 1.75598e-20 7.17899e-26 5.31398e-08 0.147431 0.0319006 0.968099 
411 1.16845e-18 4.82628e-21 3.42849e-21 7.18515e-26 4.24738e-08 0.0401965 0.030375 0.969625 
412 1.13293e-18 7.04185e-21 6.32501e-21 7.18437e-26 4.40355e-08 0.058784 0.030568 0.969432 
413 1.08342e-18 9.10444e-21 9.50272e-21 7.18311e-26 4.63229e-08 0.0844501 0.0308798 0.96912 
414 1.00921e-18 1.25926e-20 1.40307e-20 7.17952e-26 5.03056e-08 0.122691 0.0317711 0.968229 
421 1.12945e-18 6.12044e-21 5.44385e-21 7.18081e-26 4.44915e-08 0.0623152 0.0314509 0.968549 
422 1.06089e-18 9.61337e-21 9.87049e-21 7.1791e-26 4.83612e-08 0.0994875 0.0318732 0.968127 
423 9.64426e-19 1.44163e-20 1.58768e-20 7.1772e-26 5.4424e-08 0.151458 0.0323458 0.967654 
424 8.31306e-19 2.04818e-20 2.40809e-20 7.17501e-26 6.51936e-08 0.22581 0.0328886 0.967111 
431 1.12909e-18 6.50546e-21 5.54562e-21 7.18262e-26 4.41829e-08 0.0618051 0.0310031 0.968997 
432 1.05933e-18 1.01833e-20 1.01331e-20 7.18029e-26 4.74849e-08 0.0979167 0.0315799 0.96842 
433 9.62214e-19 1.48642e-20 1.61612e-20 7.17959e-26 5.303e-08 0.148297 0.0317527 0.968247 
434 8.28497e-19 2.07789e-20 2.42816e-20 7.17703e-26 6.30021e-08 0.218612 0.0323879 0.967612 
441 1.13523e-18 6.14316e-21 4.95534e-21 7.1821e-26 4.38687e-08 0.0588365 0.0311315 0.968868 
442 1.06624e-18 9.65044e-21 9.75354e-21 7.18046e-26 4.71337e-08 0.0940305 0.0315375 0.968462 
443 9.74803e-19 1.41802e-20 1.54402e-20 7.17617e-26 5.21804e-08 0.141285 0.0326009 0.967399 
444 8.45585e-19 1.96961e-20 2.41352e-20 7.17462e-26 6.15026e-08 0.209176 0.0329854 0.967015 
451 1.13928e-18 6.08447e-21 5.12974e-21 7.18346e-26 4.37148e-08 0.0562366 0.0307942 0.969206 
452 1.07689e-18 9.30718e-21 9.2411e-21 7.18248e-26 4.67248e-08 0.0887495 0.0310372 0.968963 
453 9.91282e-19 1.32604e-20 1.43744e-20 7.17949e-26 5.13167e-08 0.133208 0.0317776 0.968222 
454 8.71948e-19 1.87177e-20 2.23755e-20 7.17933e-26 5.92444e-08 0.194363 0.0318173 0.968183 
455 7.17975e-19 2.62849e-20 3.17186e-20 7.17792e-26 7.44169e-08 0.276035 0.0321677 0.967832 
461 1.14722e-18 5.76677e-21 4.63215e-21 7.18503e-26 4.34218e-08 0.0521383 0.030406 0.969594 
462 1.09403e-18 8.61905e-21 8.56878e-21 7.18355e-26 4.60072e-08 0.0799212 0.0307726 0.969227 
463 1.01424e-18 1.26564e-20 1.3955e-20 7.18096e-26 5.01265e-08 0.120825 0.0314139 0.968586 
464 9.07838e-19 1.77799e-20 2.08246e-20 7.17606e-26 5.69943e-08 0.17635 0.0326279 0.967372 
465 7.65715e-19 2.38075e-20 2.97608e-20 7.17858e-26 6.94973e-08 0.250575 0.0320029 0.967997 
471 1.15756e-18 5.22621e-21 4.20302e-21 7.18416e-26 4.30003e-08 0.0461389 0.0306215 0.969378 
472 1.10654e-18 8.23325e-21 7.90516e-21 7.18209e-26 4.53891e-08 0.0727424 0.0311334 0.968867 
473 1.0416e-18 1.17687e-20 1.23999e-20 7.18044e-26 4.8683e-08 0.106499 0.031542 0.968458 
474 9.47768e-19 1.60663e-20 1.86658e-20 7.17968e-26 5.41658e-08 0.154232 0.0317316 0.968268 
475 8.22115e-19 2.18544e-20 2.6271e-20 7.18252e-26 6.39386e-08 0.219325 0.0310277 0.968972 
481 1.16669e-18 5.08623e-21 3.58057e-21 7.18602e-26 4.26502e-08 0.0411213 0.0301606 0.969839 
482 1.12874e-18 7.2962e-21 6.24688e-21 7.1851e-26 4.42465e-08 0.0611984 0.0303891 0.969611 
483 1.07447e-18 9.75753e-21 1.03791e-20 7.18442e-26 4.67937e-08 0.0889613 0.0305558 0.969444 
484 9.92747e-19 1.35506e-20 1.5225e-20 7.18199e-26 5.10885e-08 0.130512 0.0311581 0.968842 
485 8.85327e-19 1.87967e-20 2.22071e-20 7.18093e-26 5.8342e-08 0.184627 0.0314208 0.968579 
306 5.3736e-19 3.21886e-20 4.12621e-20 7.17976e-26 1.0366e-07 0.380226 0.03171 0.96829 
316 5.86049e-19 3.06721e-20 3.92751e-20 7.1823e-26 9.37463e-08 0.349891 0.0310818 0.968918 
326 6.48855e-19 2.86915e-20 3.56016e-20 7.1813e-26 8.37318e-08 0.313538 0.0313282 0.968672 
336 7.2311e-19 2.49988e-20 3.15693e-20 7.18395e-26 7.38114e-08 0.269536 0.0306733 0.969327 
346 8.09634e-19 2.18026e-20 2.63943e-20 7.18652e-26 6.46331e-08 0.222307 0.0300356 0.969964 
356 4.69494e-19 3.40681e-20 4.4252e-20 7.18219e-26 1.29709e-07 0.448121 0.0311083 0.968892 
366 4.69296e-19 3.42155e-20 4.4137e-20 7.17924e-26 1.2191e-07 0.421372 0.0318407 0.968159 
376 5.04234e-19 3.37461e-20 4.32575e-20 7.18156e-26 1.12411e-07 0.399426 0.0312635 0.968736 
386 5.55665e-19 3.27414e-20 4.10695e-20 7.18159e-26 1.0042e-07 0.367144 0.0312572 0.968743 
215 7.5951e-19 2.34829e-20 2.84992e-20 7.17652e-26 7.28636e-08 0.272582 0.0325145 0.967486 
225 7.46517e-19 2.40113e-20 2.88114e-20 7.17493e-26 7.02165e-08 0.26458 0.0329091 0.967091 
235 7.68324e-19 2.33145e-20 2.75014e-20 7.17597e-26 6.83115e-08 0.253615 0.0326514 0.967349 
245 8.06783e-19 2.14619e-20 2.58755e-20 7.17866e-26 6.45325e-08 0.23054 0.0319824 0.968018 
285 7.13443e-19 2.55503e-20 3.16972e-20 7.17586e-26 7.83406e-08 0.298166 0.0326779 0.967322 
295 7.0212e-19 2.60483e-20 3.20552e-20 7.17629e-26 7.5712e-08 0.28958 0.0325716 0.967428 
305 7.26562e-19 2.45666e-20 3.09401e-20 7.17498e-26 7.28142e-08 0.274484 0.0328969 0.967103 
315 7.63656e-19 2.30803e-20 2.88745e-20 7.1768e-26 6.85766e-08 0.252292 0.0324457 0.967554 
325 8.1236e-19 2.19916e-20 2.62907e-20 7.18012e-26 6.45548e-08 0.226822 0.031621 0.968379 
335 8.64136e-19 1.95978e-20 2.32363e-20 7.18152e-26 5.9908e-08 0.197401 0.0312738 0.968726 
345 9.31033e-19 1.61229e-20 1.86826e-20 7.18256e-26 5.49519e-08 0.161904 0.0310171 0.968983 
355 6.76871e-19 2.67946e-20 3.30976e-20 7.17613e-26 8.34359e-08 0.317403 0.0326107 0.967389 
365 6.68878e-19 2.72616e-20 3.35777e-20 7.17521e-26 8.0089e-08 0.305705 0.0328389 0.967161 
375 6.98497e-19 2.62942e-20 3.15087e-20 7.1767e-26 7.64161e-08 0.289269 0.0324692 0.967531 
385 7.3502e-19 2.49935e-20 3.0612e-20 7.17962e-26 7.23029e-08 0.268759 0.0317458 0.968254 
395 7.80443e-19 2.33461e-20 2.84519e-20 7.18095e-26 6.72252e-08 0.242372 0.031415 0.968585 
405 8.38192e-19 2.09364e-20 2.45823e-20 7.17496e-26 6.21671e-08 0.210397 0.0329018 0.967098 
415 9.0736e-19 1.74663e-20 2.05372e-20 7.17994e-26 5.68954e-08 0.174425 0.0316667 0.968333 
425 6.57785e-19 2.6776e-20 3.42687e-20 7.17645e-26 8.64701e-08 0.325642 0.0325306 0.967469 
435 6.52997e-19 2.78153e-20 3.48025e-20 7.17462e-26 8.29903e-08 0.313092 0.0329868 0.967013 
445 6.77142e-19 2.75154e-20 3.41817e-20 7.18014e-26 7.958e-08 0.299543 0.0316153 0.968385 
265 9.01716e-19 1.7383e-20 2.09122e-20 7.17987e-26 5.71632e-08 0.178379 0.0316843 0.968316 
275 9.61805e-19 1.46565e-20 1.73712e-20 7.18314e-26 5.29426e-08 0.145947 0.0308728 0.969127 
7 6.43649e-19 2.54237e-20 3.12512e-20 7.17942e-26 8.6589e-08 0.328292 0.0317941 0.968206 
8 4.59114e-19 3.06172e-20 3.9075e-20 7.18718e-26 1.30583e-07 0.432771 0.0298743 0.970126 
17 6.54167e-19 2.54343e-20 3.0446e-20 7.18129e-26 8.332e-08 0.315566 0.0313312 0.968669 
18 4.77664e-19 3.02404e-20 3.79824e-20 7.19023e-26 1.22569e-07 0.412617 0.0291201 0.97088 
27 6.89867e-19 2.41786e-20 2.94193e-20 7.18388e-26 7.84354e-08 0.294496 0.0306889 0.969311 
28 5.22012e-19 2.93224e-20 3.77327e-20 7.19059e-26 1.10379e-07 0.382846 0.0290288 0.970971 
37 7.41097e-19 2.261e-20 2.71314e-20 7.18542e-26 7.23706e-08 0.264675 0.0303087 0.969691 
38 5.99419e-19 2.7163e-20 3.43182e-20 7.18787e-26 9.41137e-08 0.335619 0.0297025 0.970298 
47 8.10405e-19 2.04105e-20 2.44662e-20 7.18452e-26 6.53639e-08 0.224963 0.0305314 0.969469 
48 6.91916e-19 2.46975e-20 3.09118e-20 7.18781e-26 7.9744e-08 0.281823 0.0297174 0.970283 
57 8.85159e-19 1.77113e-20 2.07448e-20 7.18355e-26 5.89867e-08 0.183528 0.0307714 0.969229 
58 7.92347e-19 2.16451e-20 2.70647e-20 7.18749e-26 6.79494e-08 0.225967 0.0297972 0.970203 
67 9.59595e-19 1.44996e-20 1.66693e-20 7.18538e-26 5.38567e-08 0.145117 0.0303179 0.969682 
68 8.94075e-19 1.80312e-20 2.10137e-20 7.18711e-26 5.89491e-08 0.173719 0.0298895 0.97011 
77 5.31226e-19 3.12119e-20 3.899e-20 7.18387e-26 1.10091e-07 0.402074 0.0306918 0.969308 
78 3.33889e-19 3.57112e-20 4.68372e-20 7.19298e-26 1.94241e-07 0.531751 0.0284392 0.971561 
87 5.27401e-19 3.09727e-20 3.93301e-20 7.18521e-26 1.05303e-07 0.382735 0.0303608 0.969639 
88 3.36033e-19 3.55251e-20 4.58622e-20 7.19353e-26 1.82353e-07 0.499869 0.0283047 0.971695 
97 5.57721e-19 3.01466e-20 3.73835e-20 7.18394e-26 9.86612e-08 0.362688 0.0306757 0.969324 
98 3.73866e-19 3.40476e-20 4.48341e-20 7.1918e-26 1.59861e-07 0.467216 0.0287314 0.971269 
107 6.14407e-19 2.84718e-20 3.48225e-20 7.18621e-26 8.85462e-08 0.328805 0.0301121 0.969888 
108 4.39879e-19 3.33059e-20 4.21562e-20 7.19333e-26 1.32429e-07 0.421144 0.028354 0.971646 
117 6.90152e-19 2.57941e-20 3.11812e-20 7.18649e-26 7.7615e-08 0.2837 0.0300445 0.969955 
118 5.35381e-19 3.12752e-20 3.98617e-20 7.19228e-26 1.05488e-07 0.359345 0.0286124 0.971388 
127 7.77424e-19 2.2601e-20 2.79093e-20 7.18616e-26 6.78664e-08 0.235725 0.0301254 0.969875 
128 6.50768e-19 2.78534e-20 3.53674e-20 7.18953e-26 8.38403e-08 0.29149 0.0292925 0.970707 
137 8.76552e-19 1.85928e-20 2.24619e-20 7.18471e-26 5.90428e-08 0.183818 0.0304841 0.969516 
138 7.76277e-19 2.3421e-20 2.90241e-20 7.18936e-26 6.86379e-08 0.227121 0.0293352 0.970665 
147 4.42849e-19 3.52844e-20 4.51581e-20 7.18367e-26 1.39538e-07 0.470719 0.0307415 0.969259 
148 2.53047e-19 3.84416e-20 5.03606e-20 7.19622e-26 2.81927e-07 0.624084 0.0276403 0.97236 
157 4.36584e-19 3.48062e-20 4.51417e-20 7.18444e-26 1.3202e-07 0.441482 0.0305503 0.96945 
158 2.54478e-19 3.82644e-20 5.05543e-20 7.198e-26 2.60489e-07 0.577088 0.0271995 0.9728 
167 4.6921e-19 3.42977e-20 4.29811e-20 7.18496e-26 1.21149e-07 0.417391 0.0304231 0.969577 
168 2.85424e-19 3.76075e-20 4.91334e-20 7.19547e-26 2.24674e-07 0.541537 0.0278255 0.972175 
177 5.19269e-19 3.21466e-20 4.04779e-20 7.18572e-26 1.07458e-07 0.38317 0.0302343 0.969766 
178 3.35956e-19 3.65202e-20 4.76352e-20 7.19512e-26 1.83454e-07 0.493626 0.0279112 0.972089 
187 5.89899e-19 2.97812e-20 3.8118e-20 7.18721e-26 9.27323e-08 0.337678 0.0298657 0.970134 
188 4.17916e-19 3.4881e-20 4.55908e-20 7.1945e-26 1.41143e-07 0.430192 0.0280647 0.971935 
197 6.87049e-19 2.64353e-20 3.42368e-20 7.18745e-26 7.80971e-08 0.281972 0.029806 0.970194 
198 5.35147e-19 3.1901e-20 4.14835e-20 7.19166e-26 1.06032e-07 0.355627 0.0287663 0.971234 
207 7.93797e-19 2.23423e-20 2.80814e-20 7.1829e-26 6.61565e-08 0.224721 0.0309315 0.969068 
208 6.73691e-19 2.78259e-20 3.51012e-20 7.19081e-26 8.06298e-08 0.277106 0.0289767 0.971023 
307 3.50495e-19 3.81283e-20 5.00852e-20 7.19065e-26 1.75535e-07 0.50172 0.0290164 0.970984 
308 1.81325e-19 3.82162e-20 5.05792e-20 7.20368e-26 4.10771e-07 0.662009 0.025801 0.974199 
317 4.01321e-19 3.75577e-20 4.87884e-20 7.18991e-26 1.48781e-07 0.461167 0.0291983 0.970802 
318 2.28128e-19 3.93177e-20 5.25722e-20 7.20309e-26 3.06987e-07 0.600694 0.0259458 0.974054 
327 4.66522e-19 3.54431e-20 4.51467e-20 7.1875e-26 1.24511e-07 0.415252 0.0297947 0.970205 
328 2.89638e-19 3.8773e-20 5.12663e-20 7.19983e-26 2.2688e-07 0.533936 0.0267482 0.973252 