ITEM: TIMESTEP
10600
ITEM: NUMBER OF SURFS
41152
ITEM: BOX BOUNDS oo oo oo
-2.505 0.895
-2.5 2.5
-2.5 2.5
ITEM: SURFS id f_3[1] f_3[2] f_3[3] f_3[4] f_3[5] f_3[6] 
1 0.967027 2612.63 886507 3.66 0.126667 3.53333 
9 0.92893 2453.75 863787 3.19333 0.14 3.05333 
17 0.963197 2652.25 761268 2.85167 0.116667 2.735 
25 1.16094 3034.74 703544 2.58 0.101667 2.47833 
33 1.2424 3069.13 597537 2.205 0.0833333 2.12167 
41 1.37974 3308.66 896772 3.30833 0.131667 3.17667 
49 1.30233 3050.26 1.04761e+06 3.92833 0.163333 3.765 
57 1.37737 3142.69 1.25426e+06 4.86667 0.168333 4.69833 
65 0.954465 2442.28 926081 3.555 0.133333 3.42167 
73 0.956528 2546.57 881713 3.31333 0.125 3.18833 
81 0.919777 2458.52 724427 2.71667 0.121667 2.595 
89 1.05791 2771.21 625241 2.31333 0.0783333 2.235 
97 1.25752 3141.38 586688 2.215 0.0616667 2.15333 
105 1.33157 3201.19 828139 3.19 0.12 3.07 
113 1.33436 3140.92 1.11286e+06 4.05 0.163333 3.88667 
121 1.35341 3098.63 1.28779e+06 4.80167 0.188333 4.61333 
129 0.948881 2440.6 923453 3.55667 0.126667 3.43 
137 0.905674 2389.61 837501 3.13167 0.138333 2.99333 
145 0.984093 2627.04 779539 2.90333 0.146667 2.75667 
153 1.02193 2624.2 631843 2.345 0.0983333 2.24667 
161 1.23138 3050.07 567516 2.14167 0.095 2.04667 
169 1.37793 3317.55 860357 3.21667 0.13 3.08667 
177 1.37195 3219.09 1.09147e+06 4.095 0.173333 3.92167 
185 1.31614 2970.58 1.28384e+06 4.775 0.138333 4.63667 
193 0.919742 2354.59 918112 3.415 0.12 3.295 
201 0.947477 2500.31 873703 3.22833 0.125 3.10333 
209 0.922979 2533.86 734925 2.77333 0.106667 2.66667 
217 1.07332 2781.52 651325 2.43167 0.11 2.32167 
225 1.17926 2927.24 584126 2.11667 0.0866667 2.03 
233 1.32162 3234.78 835716 3.12667 0.143333 2.98333 
241 1.38759 3243.02 1.09e+06 4.11333 0.158333 3.955 
249 1.44226 3298.04 1.33493e+06 5.01167 0.166667 4.845 
257 0.927074 2389.8 888263 3.47833 0.146667 3.33167 
265 0.916517 2630.26 648589 3.31167 0.131667 3.18 
273 0.917569 2462.82 704584 2.76 0.105 2.655 
281 1.10436 2947.24 671410 2.465 0.09 2.375 
289 1.24911 3361.41 439919 2.37 0.1 2.27 
297 1.32332 3256.63 789437 3.11833 0.111667 3.00667 
305 1.32665 3145.32 1.03082e+06 3.985 0.16 3.825 
313 1.31119 3136.54 964420 5.00167 0.168333 4.83333 
321 0.944496 2461.16 886391 3.45167 0.141667 3.31 
329 0.970588 2525.33 859476 3.27833 0.123333 3.155 
337 0.900709 2582.21 584853 2.89167 0.0933333 2.79833 
345 1.02495 2726.83 606270 2.32667 0.0883333 2.23833 
353 1.15446 2831.82 540360 2.165 0.075 2.09 
361 1.26527 3288.08 606162 3.17333 0.145 3.02833 
369 1.3831 3182.9 1.08304e+06 4.15667 0.13 4.02667 
377 1.37548 3106.47 1.27947e+06 4.97667 0.191667 4.785 
385 0.857046 2329.68 676948 3.44667 0.148333 3.29833 
393 0.959946 2489.16 837517 3.28333 0.146667 3.13667 
401 0.955959 2561.01 738625 2.86667 0.14 2.72667 
409 0.996258 2800.14 465163 2.41167 0.0916667 2.32 
417 1.15911 2876.21 575260 2.18833 0.09 2.09833 
425 1.26394 3049.1 838496 3.09833 0.105 2.99333 
433 1.22468 3068.57 832932 4.075 0.15 3.925 
441 1.31909 2961.92 1.20379e+06 4.71167 0.156667 4.555 
449 0.933124 2409.65 905381 3.53 0.148333 3.38167 
457 0.936651 2660.55 624346 3.33667 0.115 3.22167 
465 0.97066 2531.74 742001 2.865 0.141667 2.72333 
473 1.03166 2664.34 627240 2.46333 0.105 2.35833 
481 1.13966 3041.47 430270 2.235 0.1 2.135 
489 1.22676 2928.88 801437 3.08 0.0783333 3.00167 
497 1.32016 3017.04 1.03669e+06 4.05333 0.136667 3.91667 
505 1.31368 3174.74 975168 4.91333 0.148333 4.765 
513 0.922761 2337.58 890250 3.455 0.12 3.335 
521 0.976447 2516.89 836143 3.27167 0.116667 3.155 
529 0.923068 2575.69 560225 2.835 0.0983333 2.73667 
537 1.0055 2589.51 631943 2.37833 0.106667 2.27167 
545 1.17338 2963.45 555940 2.17333 0.0866667 2.08667 
553 1.24089 3116.87 655852 3.27833 0.126667 3.15167 
561 1.40866 3215.01 1.10734e+06 4.16167 0.136667 4.025 
569 1.2975 2863.54 1.24042e+06 4.68167 0.181667 4.5 
577 0.935762 2517.21 760225 3.69167 0.16 3.53167 
585 0.911438 2319.71 818285 3.04667 0.145 2.90167 
593 0.967523 2559.2 742640 2.82333 0.103333 2.72 
601 1.02042 2812.57 499914 2.57333 0.095 2.47833 
609 1.14326 2808.95 638918 2.33167 0.108333 2.22333 
617 1.26758 3041.94 813288 3.1 0.111667 2.98833 
625 1.31287 3242.97 815293 4.045 0.141667 3.90333 
633 1.32806 2948.8 1.16803e+06 4.6 0.186667 4.41333 
641 0.960941 2420.96 947163 3.57 0.11 3.46 
649 0.907852 2507.52 637798 3.19833 0.136667 3.06167 
657 1.00695 2550.95 766353 2.91333 0.135 2.77833 
665 1.01463 2579.93 654130 2.45667 0.0816667 2.375 
673 1.12123 2913.99 485645 2.35667 0.09 2.26667 
681 1.19796 2854.48 783755 2.99333 0.103333 2.89 
689 1.30543 2957.09 999886 3.97333 0.16 3.81333 
697 1.29365 3060.12 972306 4.73833 0.15 4.58833 
705 0.95262 2412.32 900095 3.49333 0.148333 3.345 
713 0.958358 2338.02 851297 3.21833 0.121667 3.09667 
721 0.967447 2621.26 566507 2.89 0.105 2.785 
729 1.03605 2598.67 636578 2.47333 0.0716667 2.40167 
737 1.20757 2965.77 616513 2.38667 0.111667 2.275 
745 1.15421 2906.61 598161 2.99 0.121667 2.86833 
753 1.30262 2961.82 1.03501e+06 3.89333 0.155 3.73833 
761 1.3021 2915.72 1.12771e+06 4.45 0.153333 4.29667 
769 0.958785 2585.26 698653 3.57167 0.15 3.42167 
777 0.944171 2440.58 790185 3.04 0.121667 2.91833 
785 1.07917 2690.43 761897 3.07 0.118333 2.95167 
793 1.03599 2685.93 511100 2.55833 0.085 2.47333 
801 1.24062 3042.59 600330 2.40333 0.106667 2.29667 
809 1.16384 2717.65 766646 2.93167 0.108333 2.82333 
817 1.31125 3231.16 838327 4.00333 0.143333 3.86 
825 1.30504 2889.93 1.14126e+06 4.29333 0.158333 4.135 
833 0.989835 2502.93 917583 3.54333 0.141667 3.40167 
841 0.973604 2682.66 642017 3.28167 0.121667 3.16 
849 1.00584 2459.43 737550 2.855 0.126667 2.72833 
857 1.09555 2658.87 684356 2.59333 0.0866667 2.50667 
865 1.07332 2788.96 480174 2.26167 0.095 2.16667 
873 1.21835 2844 786830 3.02167 0.11 2.91167 
881 1.25337 2915.73 969908 3.61833 0.141667 3.47667 
889 1.21338 2939.71 872740 4.21 0.133333 4.07667 
897 0.965159 2421.89 877978 3.37667 0.118333 3.25833 
905 0.982129 2446.16 793698 3.11833 0.085 3.03333 
913 0.969803 2554.7 585367 2.86667 0.101667 2.765 
921 1.0614 2588.36 648020 2.585 0.0866667 2.49833 
929 1.14848 2772.74 627941 2.39833 0.1 2.29833 
937 1.1726 2879.91 616476 3.07 0.0983333 2.97167 
945 1.3118 2992.69 939762 3.66667 0.145 3.52167 
953 1.22693 2749.79 1.02002e+06 4.02167 0.143333 3.87833 
961 0.93052 2451.71 689671 3.32833 0.106667 3.22167 
969 0.924118 2281.77 736522 2.83167 0.103333 2.72833 
977 1.01564 2488.48 739470 2.79167 0.103333 2.68833 
985 1.02397 2626.56 533370 2.56833 0.105 2.46333 
993 1.22129 2927.39 613802 2.435 0.0783333 2.35667 
1001 1.21139 2858.5 789362 3.03833 0.085 2.95333 
1009 1.26111 3056.28 806615 3.7 0.145 3.555 
1017 1.23979 2807.21 1.05292e+06 3.93 0.163333 3.76667 
1025 0.938594 2292.88 852720 3.24 0.111667 3.12833 
1033 0.957115 2545.56 629989 3.01667 0.126667 2.89 
1041 1.03401 2591.2 737572 2.68667 0.0983333 2.58833 
1049 1.06779 2654.03 635892 2.54 0.085 2.455 
1057 1.14375 2920.39 511904 2.44833 0.103333 2.345 
1065 1.1785 2714.05 772639 2.88167 0.113333 2.76833 
1073 1.27948 2936.69 917500 3.475 0.14 3.335 
1081 1.28297 3122.88 854068 3.98333 0.116667 3.86667 
1089 0.916139 2240.62 823506 3.09333 0.128333 2.965 
1097 0.998599 2509.97 756374 2.91833 0.103333 2.815 
1105 1.01156 2675.92 593656 2.82833 0.108333 2.72 
1113 1.05106 2538.5 650274 2.5 0.0983333 2.40167 
1121 1.10481 2596.07 597109 2.32167 0.095 2.22667 
1129 1.12671 2826.04 570239 2.93 0.105 2.825 
1137 1.21104 2778 858564 3.38167 0.125 3.25667 
1145 1.31278 3003.64 942812 3.79 0.13 3.66 
1153 0.968171 2576.47 676765 3.16 0.128333 3.03167 
1161 0.951224 2338.87 728025 2.76333 0.085 2.67833 
1169 1.06209 2620.75 726519 2.75667 0.1 2.65667 
1177 1.04354 2713.57 541579 2.595 0.0983333 2.49667 
1185 1.13986 2770.22 613687 2.38 0.113333 2.26667 
1193 1.22031 2822.73 746345 2.93333 0.1 2.83333 
1201 1.17012 2846.7 675049 3.25167 0.106667 3.145 
1209 1.29166 2897.46 961325 3.76667 0.131667 3.635 
1217 0.988967 2440.1 768387 2.95167 0.113333 2.83833 
1225 1.03306 2700.55 609471 2.90333 0.0916667 2.81167 
1233 1.08147 2648.47 685557 2.77333 0.105 2.66833 
1241 1.05324 2526.36 669406 2.50167 0.0933333 2.40833 
1249 1.09069 2725.34 509807 2.375 0.0866667 2.28833 
1257 1.10209 2612.36 639987 2.65 0.101667 2.54833 
1265 1.26584 2953.39 822245 3.26 0.103333 3.15667 
1273 1.28179 3031.46 843381 3.66 0.131667 3.52833 
1281 0.971874 2410.49 786373 2.97333 0.1 2.87333 
1289 1.01701 2493.55 690805 2.70333 0.1 2.60333 
1297 1.03391 2710.72 577093 2.69333 0.11 2.58333 
1305 1.09933 2665.78 649170 2.52833 0.105 2.42333 
1313 1.14989 2790.27 671698 2.495 0.0966667 2.39833 
1321 1.14659 2791.04 608259 2.79833 0.0833333 2.715 
1329 1.23559 2844.18 817313 3.065 0.105 2.96 
1337 1.3662 3136.7 943892 3.60667 0.168333 3.43833 
1345 0.962582 2538.99 630115 2.82 0.113333 2.70667 
1353 0.960156 2320.26 678167 2.53 0.125 2.405 
1361 1.08112 2580.56 690982 2.68667 0.105 2.58167 
1369 1.09008 2739.78 564019 2.595 0.0983333 2.49667 
1377 1.16954 2780.9 656143 2.46167 0.0966667 2.365 
1385 1.15581 2672.04 710658 2.745 0.108333 2.63667 
1393 1.16906 2787.11 681873 2.99833 0.0883333 2.91 
1401 1.30771 3002.04 867193 3.385 0.13 3.255 
1409 0.986539 2410.56 754678 2.805 0.0866667 2.71833 
1417 0.958837 2434.82 561954 2.56 0.106667 2.45333 
1425 1.09032 2681.76 705593 2.61667 0.0983333 2.51833 
1433 1.05571 2514.86 647147 2.51 0.09 2.42 
1441 1.14334 2788.24 576219 2.49667 0.09 2.40667 
1449 1.21127 2869.18 700836 2.77167 0.106667 2.665 
1457 1.28037 2992.53 808516 3.08667 0.13 2.95667 
1465 1.25175 2919.95 707463 3.235 0.128333 3.10667 
1473 0.989994 2455.26 710566 2.64 0.106667 2.53333 
1481 1.00172 2457.63 617023 2.42 0.07 2.35 
1489 1.03599 2629.53 602176 2.595 0.0916667 2.50333 
1497 1.1205 2705.73 700115 2.65167 0.0816667 2.57 
1505 1.09048 2521.81 646787 2.38667 0.0866667 2.3 
1513 1.14796 2695.57 611637 2.72833 0.101667 2.62667 
1521 1.21237 2826.01 740025 2.90333 0.113333 2.79 
1529 1.2543 2845.85 785644 2.95333 0.0916667 2.86167 
1537 0.93816 2327.38 562513 2.46167 0.08 2.38167 
1545 0.945919 2343.38 577467 2.295 0.0683333 2.22667 
1553 1.08729 2676 652361 2.61333 0.118333 2.495 
1561 1.11541 2759.21 585852 2.635 0.101667 2.53333 
1569 1.11677 2650.54 621876 2.38667 0.106667 2.28 
1577 1.15296 2685.67 717119 2.745 0.12 2.625 
1585 1.15404 2777.69 616013 2.765 0.095 2.67 
1593 1.17449 2652.04 678106 2.66333 0.0966667 2.56667 
1601 1.0182 2393.26 624720 2.4 0.11 2.29 
1609 0.94061 2347.82 512134 2.24667 0.0783333 2.16833 
1617 0.998455 2388.73 641568 2.37833 0.08 2.29833 
1625 1.07195 2507.33 686491 2.52167 0.11 2.41167 
1633 1.11907 2758.9 612859 2.645 0.0733333 2.57167 
1641 1.19708 2753.01 755278 2.81833 0.106667 2.71167 
1649 1.20576 2757.55 757650 2.80167 0.0766667 2.725 
1657 1.16604 2732.69 618607 2.7 0.131667 2.56833 
1665 0.987899 2416 605406 2.185 0.0733333 2.11167 
1673 0.940423 2292.17 540844 2.04333 0.0766667 1.96667 
1681 0.963476 2388.36 561657 2.38167 0.075 2.30667 
1689 1.06121 2464.74 664441 2.485 0.0866667 2.39833 
1697 1.12747 2579.84 692624 2.62833 0.085 2.54333 
1705 1.14435 2764.65 647354 2.81833 0.0766667 2.74167 
1713 1.19289 2718.97 739642 2.76833 0.1 2.66833 
1721 1.23899 2852.77 660180 2.53333 0.108333 2.425 
1729 1.04949 2667.31 497859 2.21333 0.0883333 2.125 
1737 0.989107 2365.91 553624 2.09167 0.0716667 2.02 
1745 1.04498 2514 622003 2.42167 0.113333 2.30833 
1753 1.01028 2459.66 575375 2.47833 0.0683333 2.41 
1761 1.09515 2509.67 687226 2.53833 0.0833333 2.455 
1769 1.14672 2643.02 703559 2.755 0.11 2.645 
1777 1.14034 2746.04 584430 2.53833 0.103333 2.435 
1785 1.17676 2717.62 604594 2.29333 0.0883333 2.205 
1793 1.02664 2448.92 504143 1.94333 0.0716667 1.87167 
1801 1.09654 2778.19 518610 2.12833 0.085 2.04333 
1809 1.08753 2624.65 639441 2.39 0.07 2.32 
1817 1.20149 2784.84 770449 2.82667 0.113333 2.71333 
1825 1.09904 2669.61 652296 2.63167 0.111667 2.52 
1833 1.19928 2834.58 741941 2.68667 0.11 2.57667 
1841 1.31157 3071.39 719259 2.75667 0.11 2.64667 
1849 1.22612 2890.58 498585 2.19833 0.1 2.09833 
1857 1.0392 2557.23 449600 1.69667 0.0666667 1.63 
1865 1.10612 2750.98 548502 2.09167 0.0916667 2 
1873 1.06196 2668.87 591055 2.43333 0.113333 2.32 
1881 1.18322 2872.81 746163 2.84667 0.108333 2.73833 
1889 1.2138 2902.46 808959 2.92167 0.106667 2.815 
1897 1.04939 2518.88 586584 2.57333 0.105 2.46833 
1905 1.21191 2755.01 725008 2.63833 0.111667 2.52667 
1913 1.20513 2690.73 579986 2.14167 0.07 2.07167 
1921 0.992069 2489.03 328943 1.42833 0.0516667 1.37667 
1929 1.02867 2441.68 520179 1.97167 0.06 1.91167 
1937 1.06103 2548.68 653493 2.445 0.106667 2.33833 
1945 1.02879 2509.94 630279 2.61833 0.113333 2.505 
1953 1.11674 2600.96 740831 2.77167 0.111667 2.66 
1961 1.1858 2712.38 778589 2.935 0.08 2.855 
1969 1.15799 2736.12 639204 2.60167 0.108333 2.49333 
1977 1.23671 2875.95 540526 1.975 0.0733333 1.90167 
1985 1.04679 2517.05 339646 1.27667 0.0433333 1.23333 
1993 0.992479 2382.94 542650 2.17333 0.09 2.08333 
2001 1.02573 2474.26 709965 2.67833 0.13 2.54833 
2009 1.06581 2476.57 794670 3.01 0.108333 2.90167 
2017 1.10134 2691.79 760923 3.19333 0.13 3.06333 
2025 1.14573 2757.18 815410 3.025 0.105 2.92 
2033 1.13782 2623.07 744946 2.86 0.12 2.74 
2041 1.14412 2780.92 497794 2.10167 0.0666667 2.035 
2049 0 0 0 0 0 0 
2057 0 0 0 0 0 0 
2065 0 0 0 0 0 0 
2073 0.00608895 22.7142 922.001 0.00333333 0 0.00333333 
2081 0.0150694 31.3192 837.723 0.00666667 0 0.00666667 
2089 0.0173274 55.2238 1821.47 0.01 0.00166667 0.00833333 
2097 0.017653 50.8198 2583.77 0.01 0 0.01 
2105 0.0254839 43.9798 1944.84 0.01 0 0.01 
2113 0.0413652 176.763 3419.48 0.0166667 0 0.0166667 
2121 0.102212 517.397 12267.4 0.0383333 0 0.0383333 
2129 0.105935 363.269 8424.69 0.0316667 0 0.0316667 
2137 0.260425 1197.79 22202.4 0.0833333 0.00833333 0.075 
2145 0.422268 1703.78 30368 0.116667 0.005 0.111667 
2153 0.424259 1417.83 29178.7 0.101667 0.005 0.0966667 
2161 0.573482 1873.11 33444 0.135 0.005 0.13 
2169 0.588611 1622.35 48695.9 0.158333 0.00666667 0.151667 
2177 0.791144 2181.51 50079 0.193333 0.00166667 0.191667 
2185 0.756742 2125.99 96873.3 0.395 0.005 0.39 
2193 0.781441 2127.13 183485 0.695 0.03 0.665 
2201 0.847329 2206.58 331533 1.27833 0.0583333 1.22 
2209 0.880942 2310.26 498109 1.99167 0.06 1.93167 
2217 0.914018 2365.92 747023 2.79833 0.0933333 2.705 
2225 0.904281 2192.85 928918 3.45667 0.13 3.32667 
2233 0.912247 2347.9 920476 3.7 0.16 3.54 
2241 0.00623356 7.97648 877.818 0.00166667 0.00166667 0 
2249 0.00214728 6.51826 398.568 0.00166667 0.00166667 0 
2257 0 0 0 0 0 0 
2265 0.00525491 24.8569 1178.2 0.00333333 0 0.00333333 
2273 0 0 0 0 0 0 
2281 0.00732819 22.9241 1294.07 0.005 0.00166667 0.00333333 
2289 0.0233638 69.3777 1286.1 0.00666667 0 0.00666667 
2297 0.0190071 77.6653 2567.35 0.00833333 0 0.00833333 
2305 0.0555296 242.339 5065.81 0.0216667 0 0.0216667 
2313 0.0925052 421.989 8198.37 0.035 0.00166667 0.0333333 
2321 0.128099 674.671 13930.5 0.045 0.00166667 0.0433333 
2329 0.333408 1194.88 24678.2 0.0916667 0.00666667 0.085 
2337 0.325389 1364.38 24506.9 0.0883333 0.00333333 0.085 
2345 0.41215 1209.16 27637 0.11 0.005 0.105 
2353 0.523275 1724.72 42786.5 0.135 0.00666667 0.128333 
2361 0.7307 2060.51 45815.9 0.171667 0.0133333 0.158333 
2369 0.750269 2008.03 49953.6 0.183333 0.0133333 0.17 
2377 0.689502 1868.97 83433.9 0.348333 0.00833333 0.34 
2385 0.855028 2280.16 184472 0.716667 0.03 0.686667 
2393 0.867798 2279.9 334510 1.305 0.0533333 1.25167 
2401 0.896645 2420.76 497313 1.97667 0.085 1.89167 
2409 0.871349 2195.16 727668 2.70667 0.106667 2.6 
2417 0.893836 2167.8 921270 3.525 0.128333 3.39667 
2425 0.874779 2239.18 870054 3.6 0.15 3.45 
2433 0 0 0 0 0 0 
2441 0 0 0 0 0 0 
2449 0 0 0 0 0 0 
2457 0.00163425 8.27654 118.398 0.00166667 0 0.00166667 
2465 0.00143375 -2.01836 1076.37 0.00166667 0 0.00166667 
2473 0.012341 40.095 1130.52 0.00666667 0 0.00666667 
2481 0.0238919 115.992 2448.39 0.0116667 0 0.0116667 
2489 0.0289619 139.047 3030.68 0.015 0.00166667 0.0133333 
2497 0.0465792 186.186 4744.97 0.0183333 0 0.0183333 
2505 0.0813438 300.394 6396.84 0.0283333 0 0.0283333 
2513 0.09618 605.36 13449.2 0.0416667 0.00333333 0.0383333 
2521 0.217843 732.637 13296.3 0.0633333 0.00333333 0.06 
2529 0.295868 1007.7 24857.7 0.0766667 0.00166667 0.075 
2537 0.409247 1396.9 31823.2 0.12 0.00333333 0.116667 
2545 0.659319 2103.32 39410 0.163333 0.00166667 0.161667 
2553 0.609267 1840.26 37528.9 0.151667 0.005 0.146667 
2561 0.797216 2055.34 56501.7 0.218333 0.005 0.213333 
2569 0.764618 1982.23 104966 0.391667 0.0133333 0.378333 
2577 0.844825 2296.79 194338 0.726667 0.0333333 0.693333 
2585 0.832102 2113.05 323693 1.17 0.05 1.12 
2593 0.854515 2195.48 506288 1.855 0.065 1.79 
2601 0.847428 2155.88 724941 2.64333 0.0983333 2.545 
2609 0.884212 2200.12 878125 3.34833 0.116667 3.23167 
2617 0.934558 2338.95 953241 3.62 0.103333 3.51667 
2625 0 0 0 0 0 0 
2633 0 0 0 0 0 0 
2641 0 0 0 0 0 0 
2649 0.00254678 21.1197 514.31 0.00166667 0 0.00166667 
2657 0.00348985 8.3811 1011.54 0.00166667 0 0.00166667 
2665 0.00943927 38.9882 1983.53 0.005 0 0.005 
2673 0.00625088 10.0137 1949.04 0.00166667 0 0.00166667 
2681 0.0311105 138.548 2633.67 0.0133333 0 0.0133333 
2689 0.0545788 268.737 6430.67 0.0266667 0.00166667 0.025 
2697 0.102674 500.703 13935.8 0.045 0.005 0.04 
2705 0.100812 482.179 11296.8 0.0383333 0.00166667 0.0366667 
2713 0.275381 1053.21 19751.4 0.0766667 0.00166667 0.075 
2721 0.368877 1358.95 22276.4 0.0933333 0.00166667 0.0916667 
2729 0.608437 2060.32 43569 0.15 0.00666667 0.143333 
2737 0.613317 2029.53 40251 0.161667 0.00666667 0.155 
2745 0.705299 1880.16 63382.9 0.221667 0.00666667 0.215 
2753 0.929647 2543.33 67812.6 0.25 0.00833333 0.241667 
2761 0.87709 2288.34 126669 0.43 0.0216667 0.408333 
2769 0.900517 2342.2 193210 0.73 0.0266667 0.703333 
2777 0.942022 2470.76 341766 1.30667 0.0433333 1.26333 
2785 0.932639 2504.41 500332 1.90167 0.0633333 1.83833 
2793 0.884696 2207.03 729789 2.69833 0.116667 2.58167 
2801 0.903877 2236.07 931043 3.53833 0.15 3.38833 
2809 0.947913 2463.18 973397 3.675 0.14 3.535 
2817 0 0 0 0 0 0 
2825 0.0013122 5.14577 147.553 0.00166667 0.00166667 0 
2833 0 0 0 0 0 0 
2841 0 0 0 0 0 0 
2849 0.00502073 16.6037 504.297 0.00166667 0 0.00166667 
2857 0.0121559 43.9121 1178.88 0.005 0 0.005 
2865 0.0214004 100.851 3909.97 0.0116667 0 0.0116667 
2873 0.0117166 66.6441 355.948 0.005 0 0.005 
2881 0.0179827 59.1672 3276.96 0.00833333 0 0.00833333 
2889 0.0711541 409.337 10021.6 0.0316667 0.00166667 0.03 
2897 0.143647 652.806 8825.92 0.0483333 0 0.0483333 
2905 0.190038 617.073 15330.6 0.0683333 0.00333333 0.065 
2913 0.338804 1295.86 24232.9 0.0983333 0.005 0.0933333 
2921 0.41624 1560.43 28247.8 0.141667 0.0166667 0.125 
2929 0.644352 1942.46 42680 0.181667 0.01 0.171667 
2937 0.705896 2031.19 42745.8 0.203333 0.005 0.198333 
2945 0.763909 2145.94 44871.3 0.245 0.0116667 0.233333 
2953 0.826723 2394.35 98653.5 0.4 0.0116667 0.388333 
2961 0.908062 2400.95 197697 0.778333 0.0316667 0.746667 
2969 0.803868 2253.28 240653 1.19167 0.035 1.15667 
2977 0.868145 2260.29 468027 1.86 0.0633333 1.79667 
2985 0.864332 2191.6 735894 2.73833 0.126667 2.61167 
2993 0.873094 2306.29 720160 3.52667 0.121667 3.405 
3001 0.901034 2276.45 943663 3.55333 0.125 3.42833 
3009 0 0 0 0 0 0 
3017 0.00532372 21.1587 1955.99 0.00333333 0 0.00333333 
3025 0 0 0 0 0 0 
3033 0 0 0 0 0 0 
3041 0 0 0 0 0 0 
3049 0.00249297 -0.679018 618.86 0.00166667 0 0.00166667 
3057 0.0246024 121.891 5316.92 0.0116667 0 0.0116667 
3065 0.0229728 104.233 3594.63 0.0133333 0 0.0133333 
3073 0.0378773 114.625 4557.6 0.015 0 0.015 
3081 0.0889918 390.292 10284.4 0.03 0.00166667 0.0283333 
3089 0.156408 632.196 7422.69 0.055 0 0.055 
3097 0.226734 898.892 16681.2 0.0733333 0 0.0733333 
3105 0.294452 1062.29 27919.5 0.0966667 0.00166667 0.095 
3113 0.455236 1518.97 28453.3 0.135 0.00166667 0.133333 
3121 0.631668 1917.37 47213.7 0.176667 0.00666667 0.17 
3129 0.733186 2005.48 51680.3 0.21 0.005 0.205 
3137 0.740154 2120.25 46234.4 0.245 0.00666667 0.238333 
3145 0.775262 2063.07 112366 0.423333 0.0133333 0.41 
3153 0.899379 2477.91 196578 0.781667 0.0316667 0.75 
3161 0.793906 2258.97 238319 1.15667 0.045 1.11167 
3169 0.900302 2400.77 486512 1.85833 0.0716667 1.78667 
3177 0.870975 2185.14 700216 2.64667 0.0883333 2.55833 
3185 0.872538 2285.35 723812 3.55333 0.14 3.41333 
3193 0.879387 2270.76 879370 3.39833 0.103333 3.295 
3201 0 0 0 0 0 0 
3209 0 0 0 0 0 0 
3217 0 0 0 0 0 0 
3225 0.00290321 1.74716 1004.03 0.00166667 0 0.00166667 
3233 0.011157 65.1033 498.671 0.00666667 0 0.00666667 
3241 0.00493281 13.0864 1155.07 0.00333333 0 0.00333333 
3249 0.0219889 96.0686 1955.11 0.01 0 0.01 
3257 0.0209514 74.6209 2822.86 0.01 0 0.01 
3265 0.0729207 275.821 6876.38 0.025 0 0.025 
3273 0.105023 463.998 11083.3 0.0416667 0.005 0.0366667 
3281 0.181419 706.941 9843.01 0.065 0.005 0.06 
3289 0.197931 709.567 23819.9 0.0616667 0.00333333 0.0583333 
3297 0.338964 1104.18 30581.1 0.106667 0.005 0.101667 
3305 0.532874 1829.67 39030.9 0.171667 0.0116667 0.16 
3313 0.565628 1493.11 41429.2 0.155 0.005 0.15 
3321 0.808376 2204.72 54790.1 0.235 0.01 0.225 
3329 0.741753 2057.2 53441.6 0.235 0.00666667 0.228333 
3337 0.820188 2229.37 89334.1 0.396667 0.00666667 0.39 
3345 0.779184 2183.39 173144 0.653333 0.03 0.623333 
3353 0.860458 2316.11 262859 1.32 0.055 1.265 
3361 0.8518 2201.35 470299 1.825 0.08 1.745 
3369 0.870125 2160.2 698932 2.725 0.0883333 2.63667 
3377 0.896569 2367.97 718838 3.60833 0.138333 3.47 
3385 0.922543 2382.42 911585 3.525 0.123333 3.40167 
3393 0.0095733 13.482 56.6927 0.00166667 0 0.00166667 
3401 0 0 0 0 0 0 
3409 0.00406486 11.1013 226.935 0.00166667 0 0.00166667 
3417 0 0 0 0 0 0 
3425 0.00184238 2.70021 399.164 0.00166667 0 0.00166667 
3433 0.00940999 42.7948 989.98 0.00666667 0 0.00666667 
3441 0.0231437 119.171 1855.61 0.01 0 0.01 
3449 0.026775 127.92 3118.7 0.01 0 0.01 
3457 0.0833891 311.676 10481.9 0.03 0.00166667 0.0283333 
3465 0.067261 368.455 9255.59 0.0233333 0 0.0233333 
3473 0.257249 1040.42 16215.8 0.0866667 0.005 0.0816667 
3481 0.280696 1093.91 20836 0.0866667 0.00666667 0.08 
3489 0.41991 1399.37 40288.8 0.13 0.00666667 0.123333 
3497 0.565244 1992.48 31780.7 0.163333 0.00166667 0.161667 
3505 0.779735 2293.73 53151.2 0.211667 0.00833333 0.203333 
3513 0.750712 2048.12 53481.6 0.216667 0.00333333 0.213333 
3521 0.790293 2274.97 51222.2 0.243333 0.005 0.238333 
3529 0.854886 2360.88 102389 0.426667 0.0216667 0.405 
3537 0.896854 2343.07 188121 0.758333 0.03 0.728333 
3545 0.81902 2262.12 243211 1.22833 0.05 1.17833 
3553 0.853228 2178.56 487929 1.78833 0.0566667 1.73167 
3561 0.934322 2296.69 758240 2.905 0.095 2.81 
3569 0.878499 2297.45 701318 3.54167 0.126667 3.415 
3577 0.92309 2330.55 964567 3.64 0.155 3.485 
3585 0 0 0 0 0 0 
3593 0.00201132 12.0331 87.3446 0.00166667 0 0.00166667 
3601 0 0 0 0 0 0 
3609 0 0 0 0 0 0 
3617 0.0111995 45.2609 2173.33 0.00666667 0.00166667 0.005 
3625 0.00808622 42.3466 948.062 0.005 0 0.005 
3633 0.0140715 85.3206 1278.48 0.00833333 0 0.00833333 
3641 0.0282239 124.365 2804.88 0.0133333 0.00166667 0.0116667 
3649 0.0836548 356.801 9293.52 0.035 0 0.035 
3657 0.146327 657.375 15847.2 0.06 0 0.06 
3665 0.236831 1039.41 16865.8 0.0816667 0 0.0816667 
3673 0.226212 900.779 19943.6 0.0783333 0.00666667 0.0716667 
3681 0.361815 1234.9 27360.9 0.115 0.00166667 0.113333 
3689 0.636683 2186.57 39471.5 0.185 0.00833333 0.176667 
3697 0.718736 1994.83 42863.6 0.2 0.0133333 0.186667 
3705 0.906828 2316.35 67693.9 0.261667 0.0116667 0.25 
3713 0.840347 2449.98 52989.6 0.238333 0.01 0.228333 
3721 0.94825 2572.07 126871 0.47 0.0133333 0.456667 
3729 0.944303 2566.1 194260 0.766667 0.0266667 0.74 
3737 0.891898 2354.28 285298 1.315 0.0566667 1.25833 
3745 0.882492 2372.69 473535 1.84833 0.055 1.79333 
3753 0.94996 2350.79 739548 2.88167 0.106667 2.775 
3761 0.846093 2179.36 673347 3.25 0.12 3.13 
3769 0.872932 2174.99 871499 3.38 0.108333 3.27167 
3777 0 0 0 0 0 0 
3785 0 0 0 0 0 0 
3793 0.0036247 21.6108 549.964 0.00166667 0 0.00166667 
3801 0.00461437 27.1783 1616.49 0.00333333 0 0.00333333 
3809 0.00242968 0.827498 483.788 0.00166667 0 0.00166667 
3817 0.0101256 22.3258 1070.62 0.005 0 0.005 
3825 0.0224827 98.5241 2764.3 0.01 0.00166667 0.00833333 
3833 0.0412114 176.922 4972.27 0.0183333 0 0.0183333 
3841 0.0509889 203.391 7110.59 0.0233333 0 0.0233333 
3849 0.0680336 331.903 7733.31 0.0316667 0 0.0316667 
3857 0.165254 799.244 13493.5 0.0583333 0.00333333 0.055 
3865 0.394645 1457.45 33508.8 0.123333 0.00666667 0.116667 
3873 0.490325 1674.29 44909 0.15 0.01 0.14 
3881 0.514418 1609.65 40807.6 0.158333 0 0.158333 
3889 0.960561 2722.27 67979 0.253333 0.00833333 0.245 
3897 0.94404 2726.66 69437.6 0.25 0.00166667 0.248333 
3905 0.570695 1638.24 43259.7 0.185 0.01 0.175 
3913 0.919587 2358.61 121176 0.441667 0.0166667 0.425 
3921 0.855112 2169.12 199160 0.743333 0.0416667 0.701667 
3929 0.898007 2396.15 282884 1.24667 0.0483333 1.19833 
3937 0.876233 2272.51 486492 1.85667 0.08 1.77667 
3945 0.940364 2317.46 727400 2.78 0.116667 2.66333 
3953 0.896761 2270.2 788210 3.45 0.103333 3.34667 
3961 0.927503 2348.97 950519 3.54167 0.153333 3.38833 
3969 0 0 0 0 0 0 
3977 0.00127822 11.6438 877.65 0.00166667 0 0.00166667 
3985 0.00249591 18.3818 1315.36 0.00333333 0 0.00333333 
3993 0.0031648 8.09536 261.815 0.00166667 0 0.00166667 
4001 0.00491498 18.2611 13.2052 0.00166667 0 0.00166667 
4009 0.0351887 196.061 6434.6 0.0216667 0.00166667 0.02 
4017 0.0126108 89.9072 468.557 0.005 0 0.005 
4025 0.0451123 197.298 6832.81 0.0233333 0 0.0233333 
4033 0.0507036 267.586 10008.6 0.025 0.00166667 0.0233333 
4041 0.149931 564.822 13961.3 0.05 0 0.05 
4049 0.180731 757.893 15525 0.0683333 0.005 0.0633333 
4057 0.319936 1228.36 22733.7 0.0916667 0.01 0.0816667 
4065 0.427998 1431.25 37561.3 0.133333 0.005 0.128333 
4073 0.648492 2046.45 43127.1 0.176667 0.005 0.171667 
4081 0.865971 2475.63 61751.8 0.231667 0.00833333 0.223333 
4089 0.956192 2676.07 65875 0.246667 0.0133333 0.233333 
4097 0.911665 2536.1 61487.7 0.25 0.0133333 0.236667 
4105 0.845883 2416.72 113254 0.421667 0.00666667 0.415 
4113 0.859995 2172.54 206712 0.775 0.0316667 0.743333 
4121 0.912255 2361.67 295097 1.275 0.0333333 1.24167 
4129 0.844231 2120.35 478244 1.785 0.065 1.72 
4137 0.914977 2273.29 714936 2.755 0.113333 2.64167 
4145 0.839282 2159.91 746559 3.24 0.1 3.14 
4153 0.929537 2350.99 909959 3.46167 0.143333 3.31833 
4161 0 0 0 0 0 0 
4169 0 0 0 0 0 0 
4177 0 0 0 0 0 0 
4185 0.00342318 5.90221 1128.36 0.00333333 0 0.00333333 
4193 0 0 0 0 0 0 
4201 0.0181378 44.6142 2716.18 0.01 0 0.01 
4209 0.0300885 78.0584 4245.87 0.0166667 0.00333333 0.0133333 
4217 0.0508427 199.792 4777.39 0.0233333 0 0.0233333 
4225 0.0998899 404.499 11039.1 0.04 0.00166667 0.0383333 
4233 0.120574 440.307 13095.4 0.045 0.005 0.04 
4241 0.222117 1059.66 19570.5 0.0783333 0.005 0.0733333 
4249 0.28227 1022.45 25555 0.09 0.00166667 0.0883333 
4257 0.472974 1656.91 31762.5 0.138333 0.005 0.133333 
4265 0.60547 1816.2 37198.8 0.175 0.005 0.17 
4273 0.625048 1711.31 48238.3 0.188333 0.005 0.183333 
4281 0.95687 2532.23 76990.3 0.263333 0.00833333 0.255 
4289 0.830303 2373.73 59090.6 0.24 0.02 0.22 
4297 0.994439 2679.93 126785 0.465 0.0166667 0.448333 
4305 0.905695 2254.56 205871 0.773333 0.0316667 0.741667 
4313 0.840542 2232.28 278483 1.17167 0.05 1.12167 
4321 0.91429 2365.53 492395 1.85 0.085 1.765 
4329 0.931656 2266.64 740427 2.74833 0.0766667 2.67167 
4337 0.87677 2230.8 762471 3.29833 0.135 3.16333 
4345 0.95609 2433.53 927984 3.49667 0.153333 3.34333 
4353 0 0 0 0 0 0 
4361 0.00749013 16.862 691.705 0.005 0 0.005 
4369 0 0 0 0 0 0 
4377 0.00420678 15.8886 1502.57 0.00333333 0.00166667 0.00166667 
4385 0.00729456 49.0639 2067.18 0.005 0 0.005 
4393 0.0168545 65.1354 906.312 0.00833333 0 0.00833333 
4401 0.0285812 174.065 4167.02 0.0133333 0 0.0133333 
4409 0.0383389 122.97 4127.02 0.0216667 0 0.0216667 
4417 0.0371849 156.751 3392.81 0.0166667 0 0.0166667 
4425 0.108636 406.071 11227.5 0.0366667 0 0.0366667 
4433 0.231907 886.254 20404.5 0.0783333 0.00166667 0.0766667 
4441 0.358349 1352.03 31587.5 0.111667 0.00166667 0.11 
4449 0.4735 1665.57 39209.6 0.136667 0.005 0.131667 
4457 0.636163 2102.99 39738.8 0.171667 0.00833333 0.163333 
4465 0.913813 2749.61 65338.4 0.24 0.01 0.23 
4473 1.06193 2909.1 61496.4 0.248333 0.005 0.243333 
4481 0.956819 2684.54 68107.3 0.271667 0.01 0.261667 
4489 1.0024 2747.49 111479 0.448333 0.015 0.433333 
4497 0.940022 2491.68 204341 0.738333 0.0233333 0.715 
4505 0.846968 2290.19 281158 1.14833 0.04 1.10833 
4513 0.904072 2311.18 498888 1.82 0.0683333 1.75167 
4521 0.921197 2236.33 712606 2.695 0.101667 2.59333 
4529 0.901782 2308.2 791384 3.27833 0.12 3.15833 
4537 0.915466 2315.01 945253 3.47667 0.148333 3.32833 
4545 0 0 0 0 0 0 
4553 0.00357182 4.18061 869.057 0.00333333 0.00166667 0.00166667 
4561 0 0 0 0 0 0 
4569 0.00770059 12.8363 128.043 0.00333333 0 0.00333333 
4577 0.0108965 37.0171 1265.03 0.00666667 0.00166667 0.005 
4585 0.0201806 40.556 3915.7 0.0116667 0 0.0116667 
4593 0.0262543 102.801 3942.38 0.0133333 0 0.0133333 
4601 0.0393245 111.644 4813.76 0.0183333 0.00166667 0.0166667 
4609 0.112749 389.285 13480 0.0483333 0.00333333 0.045 
4617 0.134581 600.596 18312.5 0.055 0.00166667 0.0533333 
4625 0.27205 1192.41 20774.8 0.085 0.00833333 0.0766667 
4633 0.331892 1267.69 30782.7 0.115 0.005 0.11 
4641 0.525687 1545.35 39485 0.145 0.0116667 0.133333 
4649 0.63974 2039.38 40691.2 0.171667 0.00666667 0.165 
4657 0.970827 2850.11 72880.8 0.26 0.00833333 0.251667 
4665 1.03998 2942.03 72028.2 0.291667 0.005 0.286667 
4673 0.980474 2802.2 65074.8 0.285 0.005 0.28 
4681 0.923821 2465.86 107175 0.43 0.015 0.415 
4689 0.955231 2638.35 197530 0.733333 0.0216667 0.711667 
4697 0.849635 2257.03 266022 1.07833 0.0416667 1.03667 
4705 0.906512 2297.38 479594 1.76167 0.0683333 1.69333 
4713 0.897796 2169.31 692990 2.70167 0.1 2.60167 
4721 0.908928 2313.68 831980 3.28167 0.131667 3.15 