TITLE = "cylinder-radeq at time = 67000"
VARIABLES = "X", "Y", "id", "f_88[*]"
ZONE NODES = 100, ELEMENTS = 50, DATAPACKING = BLOCK, VARLOCATION = ([3-4] = CELLCENTERED), ZONETYPE = FELINESEG, SOLUTIONTIME = 67000
0.0 0.00030072699883 0.00030072699883 0.00120171997696 0.00120171997696 0.0026994200889
0.0026994200889 0.00478792982176 0.00478792982176 0.00745898997411 0.00745898997411
0.0107020996511 0.0107020996511 0.0145044000819 0.0145044000819 0.0188509002328
0.0188509002328 0.023724399507 0.023724399507 0.0291057992727 0.0291057992727
0.0349738001823 0.0349738001823 0.0413051992655 0.0413051992655 0.0480750016868
0.0480750016868 0.055256601423 0.055256601423 0.0628215000033 0.0628215000033
0.0707399994135 0.0707399994135 0.0789806991816 0.0789806991816 0.0875111967325
0.0875111967325 0.0962978005409 0.0962978005409 0.105305999517 0.105305999517
0.114500001073 0.114500001073 0.123842999339 0.123842999339 0.133298993111
0.133298993111 0.142830997705 0.142830997705 0.152400001884 0.152400001884
0.161969006062 0.161969006062 0.171500995755 0.171500995755 0.180957004428
0.180957004428 0.190300002694 0.190300002694 0.19949400425 0.19949400425
0.20850199461 0.20850199461 0.21728900075 0.21728900075 0.225819006562
0.225819006562 0.234060004354 0.234060004354 0.241978004575 0.241978004575
0.249542996287 0.249542996287 0.256725013256 0.256725013256 0.263494998217
0.263494998217 0.269825994968 0.269825994968 0.275694012642 0.275694012642
0.281076014042 0.281076014042 0.285948991776 0.285948991776 0.290295988321
0.290295988321 0.294097989798 0.294097989798 0.297340989113 0.297340989113
0.300011992455 0.300011992455 0.302100986242 0.302100986242 0.303597986698
0.303597986698 0.304499000311 0.304499000311 0.304800003767 
0.0 0.00956927984953 0.00956927984953 0.0191008001566 0.0191008001566 0.0285569000989
0.0285569000989 0.0379002988338 0.0379002988338 0.0470941998065 0.0470941998065
0.0561022013426 0.0561022013426 0.0648887977004 0.0648887977004 0.073419302702
0.073419302702 0.08166000247 0.08166000247 0.0895785018802 0.0895785018802
0.0971433967352 0.0971433967352 0.104324996471 0.104324996471 0.111094996333
0.111094996333 0.117426000535 0.117426000535 0.123294003308 0.123294003308
0.128675997257 0.128675997257 0.133549004793 0.133549004793 0.137896001339
0.137896001339 0.141698002815 0.141698002815 0.144941002131 0.144941002131
0.147612005472 0.147612005472 0.14970099926 0.14970099926 0.151197999716
0.151197999716 0.152098998427 0.152098998427 0.152400001884 0.152400001884
0.152098998427 0.152098998427 0.151197999716 0.151197999716 0.14970099926
0.14970099926 0.147612005472 0.147612005472 0.144941002131 0.144941002131
0.141698002815 0.141698002815 0.137896001339 0.137896001339 0.133549004793
0.133549004793 0.128675997257 0.128675997257 0.123294003308 0.123294003308
0.117426000535 0.117426000535 0.111094996333 0.111094996333 0.104324996471
0.104324996471 0.0971433967352 0.0971433967352 0.0895785018802 0.0895785018802
0.08166000247 0.08166000247 0.073419302702 0.073419302702 0.0648887977004
0.0648887977004 0.0561022013426 0.0561022013426 0.0470941998065 0.0470941998065
0.0379002988338 0.0379002988338 0.0285569000989 0.0285569000989 0.0191008001566
0.0191008001566 0.00956927984953 0.00956927984953 0.0 
1.0 2.0 3.0 4.0 5.0 6.0
7.0 8.0 9.0 10.0 11.0
12.0 13.0 14.0 15.0 16.0
17.0 18.0 19.0 20.0 21.0
22.0 23.0 24.0 25.0 26.0
27.0 28.0 29.0 30.0 31.0
32.0 33.0 34.0 35.0 36.0
37.0 38.0 39.0 40.0 41.0
42.0 43.0 44.0 45.0 46.0
47.0 48.0 49.0 50.0 
36802.1 36007.3 35739.2 33588.1 33331.1 32680.7
31094.0 30346.0 28709.2 27374.6 25343.0
23021.1 22924.7 19805.3 18364.6 18858.9
16998.5 14626.8 12573.7 10748.0 10118.4
9213.51 8042.28 6925.23 5558.14 4943.59
4826.02 3525.41 2882.05 2520.78 2485.02
1624.34 1501.23 1451.61 950.072 1063.76
768.75 688.778 630.826 424.173 399.386
354.39 349.086 427.55 525.933 554.948
395.652 583.1 596.196 554.773 
1 2 
3 4 
5 6 
7 8 
9 10 
11 12 
13 14 
15 16 
17 18 
19 20 
21 22 
23 24 
25 26 
27 28 
29 30 
31 32 
33 34 
35 36 
37 38 
39 40 
41 42 
43 44 
45 46 
47 48 
49 50 
51 52 
53 54 
55 56 
57 58 
59 60 
61 62 
63 64 
65 66 
67 68 
69 70 
71 72 
73 74 
75 76 
77 78 
79 80 
81 82 
83 84 
85 86 
87 88 
89 90 
91 92 
93 94 
95 96 
97 98 
99 100 
