ITEM: TIMESTEP
166000
ITEM: NUMBER OF SURFS
50
ITEM: BOX BOUNDS oo ro pp
-0.2 0.65
0 0.4
-0.5 0.5
ITEM: SURFS id f_88[*] 
1 35462.1 
5 33527.3 
9 28518.5 
13 22199.7 
17 16525.1 
21 10206.4 
25 5541.69 
29 2990.13 
33 1447.12 
37 706.787 
41 404.275 
45 495.992 
49 631.483 
2 36534.8 
6 32597.3 
10 25848.2 
14 19294.8 
18 14704.6 
22 8699.11 
26 4671.99 
30 2592.51 
34 1554.97 
38 613.506 
42 431.636 
46 511.923 
50 657.836 
3 35367.3 
7 31268 
11 25165.7 
15 17227.8 
19 12442.7 
23 7605.76 
27 4955.24 
31 2337.17 
35 1105.95 
39 562.826 
43 331.752 
47 560.157 
4 34370.1 
8 30363.8 
12 22100.1 
16 18400 
20 11490.1 
24 6754.23 
28 3641.68 
32 1443.16 
36 928.152 
40 413.354 
44 429.921 
48 591.42 
