ITEM: TIMESTEP
32000
ITEM: NUMBER OF SURFS
50
ITEM: BOX BOUNDS oo ro pp
-0.2 0.65
0 0.4
-0.5 0.5
ITEM: SURFS id f_88[*] 
1 36269.1 
5 33865.6 
9 29130.3 
13 21843.4 
17 16570.9 
21 9548.02 
25 6057.58 
29 3204.18 
33 1370.13 
37 720.631 
41 322.906 
45 203.232 
49 306.88 
2 38337.8 
6 33795.2 
10 27180.5 
14 19947.2 
18 15092.3 
22 8829.27 
26 4881.64 
30 2541.83 
34 1567.37 
38 589.518 
42 258.386 
46 264.822 
50 358.812 
3 36100.8 
7 30727.7 
11 25541.4 
15 18116.4 
19 12853.5 
23 7642.44 
27 4218.03 
31 2729.14 
35 1270.87 
39 425.075 
43 270.291 
47 374.053 
4 35312.6 
8 30407.9 
12 24205.1 
16 18253 
20 12037.3 
24 6942.03 
28 3628.3 
32 1773.02 
36 774.771 
40 415.542 
44 278.394 
48 352.547 
