ITEM: TIMESTEP
146000
ITEM: NUMBER OF SURFS
50
ITEM: BOX BOUNDS oo ro pp
-0.2 0.65
0 0.4
-0.5 0.5
ITEM: SURFS id f_88[*] 
1 35168.8 
5 33852.8 
9 29116.1 
13 22635.1 
17 16323.4 
21 9903.01 
25 5595.58 
29 3296.91 
33 1551.8 
37 771.615 
41 397.879 
45 454.834 
49 575.392 
2 34724 
6 33322.7 
10 27659.2 
14 20795.1 
18 14835.5 
22 9085.74 
26 4840.08 
30 2787.81 
34 1401.44 
38 618.358 
42 425.336 
46 535.52 
50 711.938 
3 34867.1 
7 31334 
11 25451.2 
15 18433.8 
19 12783.1 
23 7610.21 
27 4578.17 
31 2497.08 
35 1213.5 
39 506.964 
43 469.986 
47 482.269 
4 33771.1 
8 29845.1 
12 23398 
16 19060.2 
20 11750.7 
24 6465.74 
28 3232.04 
32 1819.53 
36 1012.8 
40 442.312 
44 467.494 
48 485.288 
