ITEM: TIMESTEP
182000
ITEM: NUMBER OF SURFS
50
ITEM: BOX BOUNDS oo ro pp
-0.2 0.65
0 0.4
-0.5 0.5
ITEM: SURFS id f_88[*] 
1 35578.9 
5 32238.1 
9 29368.3 
13 22578.4 
17 16647.7 
21 10066.9 
25 5877.53 
29 2934.5 
33 1270.66 
37 777.01 
41 368.011 
45 492.488 
49 593.048 
2 36279.7 
6 32192.7 
10 25820.9 
14 19560.9 
18 14154.5 
22 8555.25 
26 4787.63 
30 2612.57 
34 1415.77 
38 617.717 
42 348.182 
46 461.03 
50 613.085 
3 34801.4 
7 31988.3 
11 24506.2 
15 17617.7 
19 12407.4 
23 7624.53 
27 4384.95 
31 2444.38 
35 1146.22 
39 522.664 
43 417.558 
47 604.399 
4 34683.2 
8 30325.6 
12 23641.1 
16 17904.9 
20 11173.8 
24 6369.75 
28 3391.71 
32 1731.47 
36 893.272 
40 373.969 
44 445.636 
48 635.074 
