ITEM: TIMESTEP
148000
ITEM: NUMBER OF SURFS
50
ITEM: BOX BOUNDS oo ro pp
-0.2 0.65
0 0.4
-0.5 0.5
ITEM: SURFS id f_88[*] 
1 36181.4 
5 33881.7 
9 29084.7 
13 23360.8 
17 16130.9 
21 10145.6 
25 6040.44 
29 2930.24 
33 1632.35 
37 750.741 
41 397.147 
45 396.057 
49 646.826 
2 35848.1 
6 33573.1 
10 26446.5 
14 20135.1 
18 15236.2 
22 8749.26 
26 4856.52 
30 2488.97 
34 1409.46 
38 563.463 
42 399.235 
46 497.302 
50 540.466 
3 35588.2 
7 31553.5 
11 25018 
15 19060.1 
19 12465.6 
23 8050.57 
27 4464.14 
31 2281.43 
35 1372.87 
39 548.396 
43 401.197 
47 550.551 
4 34591 
8 31249.9 
12 23358.3 
16 18163.5 
20 11671.4 
24 6807.78 
28 3362.72 
32 1501.22 
36 907.531 
40 461.246 
44 376.09 
48 516.296 
