ITEM: TIMESTEP
186000
ITEM: NUMBER OF SURFS
50
ITEM: BOX BOUNDS oo ro pp
-0.2 0.65
0 0.4
-0.5 0.5
ITEM: SURFS id f_88[*] 
1 35752.3 
5 33101.3 
9 27822.8 
13 22148.1 
17 15727.3 
21 9755.81 
25 5656.63 
29 3016.74 
33 1500.38 
37 669.828 
41 318.29 
45 519.924 
49 656.76 
2 35495.2 
6 32393.2 
10 26068.9 
14 19039.5 
18 14612.1 
22 8043.1 
26 5264.5 
30 2670.11 
34 1580.77 
38 617.297 
42 332.126 
46 536.463 
50 608.437 
3 35438 
7 30759.8 
11 24672.9 
15 18047.2 
19 11978.9 
23 7506.42 
27 4539.07 
31 2319.47 
35 1251.88 
39 553.935 
43 438.075 
47 508.531 
4 34891.5 
8 29206.8 
12 22944.5 
16 18281.1 
20 11684.4 
24 6415.66 
28 3366.43 
32 1476.4 
36 1034.69 
40 391.646 
44 537.228 
48 502.358 
