ITEM: TIMESTEP
87000
ITEM: NUMBER OF SURFS
50
ITEM: BOX BOUNDS oo ro pp
-0.2 0.65
0 0.4
-0.5 0.5
ITEM: SURFS id f_88[*] 
1 36044.3 
5 33760.7 
9 28818.7 
13 22492.1 
17 16772.8 
21 10146.1 
25 5791.09 
29 3206.34 
33 1333.71 
37 704.971 
41 371.366 
45 494.65 
49 656.92 
2 36937.6 
6 32813.4 
10 27009.3 
14 20150.8 
18 14292.7 
22 8904.33 
26 4949.42 
30 2239.59 
34 1397.58 
38 596.499 
42 430.179 
46 551.519 
50 546.214 
3 35666.6 
7 32413.4 
11 25347.9 
15 18698.8 
19 12376.1 
23 8335.67 
27 4474.23 
31 2630.13 
35 1252.4 
39 642.148 
43 372.622 
47 547.652 
4 34795.8 
8 30773.8 
12 23375.7 
16 18941.8 
20 11522.9 
24 6747.1 
28 3402.26 
32 1668.45 
36 950.234 
40 496.834 
44 362.022 
48 609.32 
