ITEM: TIMESTEP
285000
ITEM: NUMBER OF SURFS
50
ITEM: BOX BOUNDS oo ro pp
-0.2 0.65
0 0.4
-0.5 0.5
ITEM: SURFS id f_88[*] 
1 35556 
5 33490.1 
9 28195.2 
13 22466.2 
17 15925 
21 10519.7 
25 5771.27 
29 2776.34 
33 1395.51 
37 751.974 
41 414.994 
45 554.021 
49 581.433 
2 35654.1 
6 33634.7 
10 26926.3 
14 19157.2 
18 14121.4 
22 9400.43 
26 4725.54 
30 2636.24 
34 1426.15 
38 639.088 
42 430.743 
46 497.48 
50 636.355 
3 34038.7 
7 30652.7 
11 24953.6 
15 18410.2 
19 12609.9 
23 8097.4 
27 4160.8 
31 2322.21 
35 1197.32 
39 507.323 
43 468.318 
47 506.923 
4 34481.4 
8 28819.8 
12 23755.9 
16 18767.7 
20 11455.9 
24 6622.23 
28 3422.23 
32 1522.61 
36 913.155 
40 402.869 
44 405.61 
48 556.322 
