ITEM: TIMESTEP
86000
ITEM: NUMBER OF SURFS
50
ITEM: BOX BOUNDS oo ro pp
-0.2 0.65
0 0.4
-0.5 0.5
ITEM: SURFS id f_88[*] 
1 34821.7 
5 34661.2 
9 27969.8 
13 23173.8 
17 16238.4 
21 10147.3 
25 6065.85 
29 2927.36 
33 1663.18 
37 608.026 
41 370.711 
45 460.592 
49 680.999 
2 35361 
6 34524.5 
10 27460.5 
14 19113.7 
18 14159.5 
22 8659.56 
26 5060.29 
30 2499.26 
34 1617.91 
38 508.627 
42 522.727 
46 469.291 
50 645.909 
3 35213 
7 32417 
11 25608 
15 18316.1 
19 12716.7 
23 7539.13 
27 4564.25 
31 2358.78 
35 1120.53 
39 530.055 
43 326.097 
47 534.53 
4 34603.9 
8 30370.3 
12 23961.5 
16 18604.7 
20 11850.3 
24 6782.93 
28 3603.69 
32 1520.66 
36 891.995 
40 473.92 
44 483.954 
48 548.042 
