ITEM: TIMESTEP
11000
ITEM: NUMBER OF SURFS
50
ITEM: BOX BOUNDS oo ro pp
-0.2 0.65
0 0.4
-0.5 0.5
ITEM: SURFS id f_88[*] 
1 36852.7 
5 34643.9 
9 30641.6 
13 24262.6 
17 16909.9 
21 11044.7 
25 6153.51 
29 2988.45 
33 1138.85 
37 461.631 
41 67.5988 
45 12.6981 
49 0 
2 38944.6 
6 36770.4 
10 29839.3 
14 21544.4 
18 14534.6 
22 10565.5 
26 5426.22 
30 2625.25 
34 1275.93 
38 434.834 
42 60.9692 
46 0 
50 0 
3 39497.7 
7 33883.3 
11 27418.8 
15 19702.3 
19 13417.5 
23 8636.31 
27 4843.36 
31 2334.02 
35 832.426 
39 262.924 
43 29.0638 
47 0 
4 37355.1 
8 34132.7 
12 25836.9 
16 17375.1 
20 12631.1 
24 7473.65 
28 3879.96 
32 1693.5 
36 685.238 
40 168.29 
44 3.81555 
48 0 
