ITEM: TIMESTEP
248000
ITEM: NUMBER OF SURFS
50
ITEM: BOX BOUNDS oo ro pp
-0.2 0.65
0 0.4
-0.5 0.5
ITEM: SURFS id f_88[*] 
1 34305.4 
5 32434.3 
9 28660.3 
13 22068.5 
17 16411.5 
21 10236.6 
25 5655.48 
29 2740.26 
33 1461.69 
37 896.663 
41 416.927 
45 583.72 
49 618.528 
2 34886.1 
6 32733.5 
10 27377.5 
14 18890.9 
18 15002.9 
22 8321.96 
26 4944.06 
30 2623.19 
34 1465.78 
38 591.549 
42 401.891 
46 528.363 
50 544.462 
3 35873.4 
7 30276.6 
11 25948.7 
15 17262.5 
19 12454.3 
23 7685.73 
27 4428.76 
31 2451.36 
35 1110.52 
39 544.222 
43 375.123 
47 572.178 
4 34466.7 
8 30735 
12 22983.5 
16 18181.7 
20 10867.3 
24 6507.94 
28 3420.73 
32 1464.85 
36 895.219 
40 421.444 
44 489.02 
48 640.549 
