ITEM: TIMESTEP
153000
ITEM: NUMBER OF SURFS
50
ITEM: BOX BOUNDS oo ro pp
-0.2 0.65
0 0.4
-0.5 0.5
ITEM: SURFS id f_88[*] 
1 34470.1 
5 31865 
9 27910.4 
13 22201.7 
17 16434.9 
21 9616.21 
25 5403.82 
29 2895.78 
33 1701.81 
37 649.165 
41 378.307 
45 468.462 
49 575.932 
2 35452 
6 32191.8 
10 25978.1 
14 19906.6 
18 14215.2 
22 8464.74 
26 4523.79 
30 2673.17 
34 1587.83 
38 612.553 
42 436.481 
46 592.49 
50 711.628 
3 35689.6 
7 31124.2 
11 24228.2 
15 17712 
19 11936.6 
23 7572.11 
27 4210.33 
31 2368.96 
35 1281.76 
39 571.948 
43 382.623 
47 618.505 
4 33743.2 
8 29709 
12 22751.4 
16 18879.3 
20 11652.3 
24 6451.22 
28 3381.62 
32 1850.92 
36 833.915 
40 474.848 
44 428.741 
48 582.447 
