ITEM: TIMESTEP
84000
ITEM: NUMBER OF SURFS
50
ITEM: BOX BOUNDS oo ro pp
-0.2 0.65
0 0.4
-0.5 0.5
ITEM: SURFS id f_88[*] 
1 36040.9 
5 35565.3 
9 27758.5 
13 21786.5 
17 16490.4 
21 9690.24 
25 5816.37 
29 2864.63 
33 1396.71 
37 697.71 
41 416.182 
45 422.444 
49 563.079 
2 35024.9 
6 33684.9 
10 27611.7 
14 20191.9 
18 14723.5 
22 8733.37 
26 4930.4 
30 2634.68 
34 1507.78 
38 667.415 
42 301.865 
46 494.625 
50 609.695 
3 36761.7 
7 31475.8 
11 25021.9 
15 17735.4 
19 12461.5 
23 8152.55 
27 4273.34 
31 2428.68 
35 1152.71 
39 491.813 
43 440.146 
47 523.789 
4 35486.8 
8 30502.8 
12 23718.7 
16 18185.2 
20 11517.4 
24 6758.07 
28 3343.21 
32 1917.26 
36 839.66 
40 412.058 
44 535.217 
48 576.953 
