ITEM: TIMESTEP
302000
ITEM: NUMBER OF SURFS
50
ITEM: BOX BOUNDS oo ro pp
-0.2 0.65
0 0.4
-0.5 0.5
ITEM: SURFS id f_88[*] 
1 34367.8 
5 33245.9 
9 28770.5 
13 21778.7 
17 16284.8 
21 9988.17 
25 5430.86 
29 2761.86 
33 1410.38 
37 598.144 
41 416.759 
45 563.618 
49 556.966 
2 36151.8 
6 34312.1 
10 26219.3 
14 18878.7 
18 15213.9 
22 8972.89 
26 4665.36 
30 2608.68 
34 1429.89 
38 619.212 
42 366.653 
46 528.225 
50 537.851 
3 35731.3 
7 31482.2 
11 24650.7 
15 17336.5 
19 12071.1 
23 8065.7 
27 4196.73 
31 2512.2 
35 1160.43 
39 463.9 
43 457.646 
47 663.819 
4 34143.5 
8 28930.5 
12 22049.7 
16 18717.4 
20 11753.9 
24 6587.46 
28 3390.12 
32 1615.43 
36 928.653 
40 474.293 
44 527.543 
48 637.504 
