ITEM: TIMESTEP
12000
ITEM: NUMBER OF SURFS
50
ITEM: BOX BOUNDS oo ro pp
-0.2 0.65
0 0.4
-0.5 0.5
ITEM: SURFS id f_88[*] 
1 38811.7 
5 36449.6 
9 31684.1 
13 24657.8 
17 16798.8 
21 11546.3 
25 5861.75 
29 3165.8 
33 1571.82 
37 474.247 
41 131.436 
45 28.6364 
49 0 
2 38873.1 
6 36941.2 
10 30338.7 
14 21517.8 
18 14085.6 
22 9949.59 
26 5729.74 
30 2480.57 
34 1134.3 
38 372.842 
42 53.9796 
46 2.19358 
50 0 
3 40082.8 
7 34666.3 
11 28064.7 
15 19480.5 
19 12793.8 
23 8139.96 
27 4678.33 
31 2044.93 
35 1146.22 
39 381.642 
43 33.9103 
47 0 
4 39633.6 
8 33988.6 
12 26129.3 
16 17537.4 
20 11885 
24 6849.35 
28 3801.8 
32 1769.37 
36 749.478 
40 200.431 
44 17.6414 
48 0 
