ITEM: TIMESTEP
241000
ITEM: NUMBER OF SURFS
50
ITEM: BOX BOUNDS oo ro pp
-0.2 0.65
0 0.4
-0.5 0.5
ITEM: SURFS id f_88[*] 
1 35603.8 
5 33824 
9 28296.8 
13 22538 
17 16437.7 
21 10252.8 
25 6389.82 
29 2522.9 
33 1579.62 
37 757.576 
41 454.555 
45 461.44 
49 599.275 
2 36274.6 
6 33737.6 
10 26453.8 
14 19333.1 
18 14396.9 
22 8489.23 
26 5151.72 
30 2465.81 
34 1322.32 
38 592.745 
42 438.756 
46 430.375 
50 620.654 
3 34737.1 
7 31262 
11 24641.1 
15 18226.5 
19 12108.2 
23 7686.64 
27 4513 
31 2524.27 
35 1246.2 
39 592.186 
43 411.683 
47 484.363 
4 35701.3 
8 30039.6 
12 23967.6 
16 18304 
20 11861.5 
24 7090.64 
28 3474.29 
32 1626.89 
36 910.625 
40 326.121 
44 459.112 
48 608.13 
