ITEM: TIMESTEP
22000
ITEM: NUMBER OF SURFS
50
ITEM: BOX BOUNDS oo ro pp
-0.2 0.65
0 0.4
-0.5 0.5
ITEM: SURFS id f_88[*] 
1 36643.7 
5 33821.6 
9 29951.2 
13 22565 
17 16433.9 
21 10269.1 
25 5928.03 
29 3151.63 
33 1626.38 
37 807.373 
41 281.121 
45 63.0688 
49 10.6234 
2 36144.3 
6 33498.7 
10 26923.8 
14 19908.4 
18 14717.3 
22 9184.29 
26 4913.6 
30 2712.77 
34 1271.35 
38 478.49 
42 205.619 
46 36.1446 
50 2.1149 
3 35590.5 
7 33304.7 
11 25548.2 
15 18256.4 
19 12623.5 
23 7960.16 
27 4721.63 
31 2481.8 
35 1158.81 
39 343.493 
43 57.1076 
47 42.878 
4 36023.2 
8 30409.5 
12 23880.1 
16 18506.9 
20 11756.4 
24 6727.05 
28 3934.81 
32 1614.64 
36 870.199 
40 391.688 
44 105.942 
48 40.3001 
