ITEM: TIMESTEP
10000
ITEM: NUMBER OF SURFS
50
ITEM: BOX BOUNDS oo ro pp
-0.2 0.65
0 0.4
-0.5 0.5
ITEM: SURFS id f_88[*] 
1 41273.5 
5 41088.8 
9 35107.6 
13 25430 
17 18130.3 
21 11200.5 
25 7053.7 
29 3427.25 
33 1306.49 
37 433.931 
41 33.4553 
45 12.6184 
49 0 
2 43885.4 
6 40363.6 
10 32141.4 
14 23923 
18 15586.2 
22 8766.54 
26 5750.05 
30 2643.05 
34 1135.02 
38 234.56 
42 40.2662 
46 0 
50 0 
3 42615 
7 37826.6 
11 30305 
15 20811.3 
19 12856.6 
23 7530.66 
27 4564.7 
31 2334.74 
35 864.898 
39 194.192 
43 11.6091 
47 0 
4 41844.4 
8 36144.6 
12 28127.3 
16 20231.7 
20 12636 
24 7395.7 
28 3932.97 
32 1731.73 
36 549.686 
40 85.3896 
44 2.3944 
48 0 
