ITEM: TIMESTEP
293000
ITEM: NUMBER OF SURFS
50
ITEM: BOX BOUNDS oo ro pp
-0.2 0.65
0 0.4
-0.5 0.5
ITEM: SURFS id f_88[*] 
1 37639.9 
5 33280.7 
9 28232.8 
13 22134.4 
17 16441.2 
21 10268.3 
25 5713.62 
29 2918.19 
33 1602.39 
37 863.605 
41 348.748 
45 489.961 
49 614.326 
2 36903.9 
6 33029.1 
10 26770.7 
14 19594.9 
18 14745.4 
22 8951.9 
26 4603.39 
30 2207.59 
34 1394.08 
38 592.151 
42 427.933 
46 460.846 
50 619.009 
3 35331.1 
7 31916.9 
11 24377.7 
15 17736 
19 11728.4 
23 7804.55 
27 4380.13 
31 2559.23 
35 1028.42 
39 632.683 
43 589.365 
47 492.984 
4 33465.3 
8 29346.9 
12 22812.7 
16 18044.5 
20 11561.9 
24 6656.35 
28 3341.73 
32 1422.57 
36 875.666 
40 418.343 
44 428.98 
48 584.79 
