ITEM: TIMESTEP
100000
ITEM: NUMBER OF SURFS
50
ITEM: BOX BOUNDS oo ro pp
-0.2 0.65
0 0.4
-0.5 0.5
ITEM: SURFS id f_88[*] 
1 36048.3 
5 33361.5 
9 28240.1 
13 23017.2 
17 16728.1 
21 10530.9 
25 5789.54 
29 2976.91 
33 1501.23 
37 840.315 
41 356.658 
45 422.68 
49 668.759 
2 37389 
6 32356.8 
10 26959.1 
14 19840.6 
18 15250.9 
22 8977.4 
26 4780.51 
30 2805.51 
34 1534.58 
38 626.457 
42 406.253 
46 513.954 
50 658.813 
3 35013.6 
7 31480.2 
11 25518.3 
15 17631.9 
19 12741.8 
23 7704.43 
27 4809.26 
31 2494.37 
35 1041.35 
39 608.607 
43 411.456 
47 626.867 
4 34438.6 
8 29637.7 
12 23760.8 
16 18716.4 
20 11791.1 
24 6948 
28 3703.51 
32 1663.37 
36 993.871 
40 390.092 
44 481.338 
48 559.935 
