ITEM: TIMESTEP
42000
ITEM: NUMBER OF SURFS
50
ITEM: BOX BOUNDS oo ro pp
-0.2 0.65
0 0.4
-0.5 0.5
ITEM: SURFS id f_88[*] 
1 34698.9 
5 34962 
9 29489.8 
13 23527.8 
17 16767.9 
21 10128 
25 5817.22 
29 2859.78 
33 1429.81 
37 810.811 
41 378.546 
45 329.361 
49 482.643 
2 36046.8 
6 33063.1 
10 27000.4 
14 19875.2 
18 14711.8 
22 9098.09 
26 4867.3 
30 2358.96 
34 1405.02 
38 683.88 
42 319.835 
46 371.673 
50 501.733 
3 35619.6 
7 32330 
11 25599.7 
15 17378.4 
19 12692.6 
23 7664.81 
27 4869.46 
31 2238.94 
35 1246.05 
39 390.193 
43 359.584 
47 508.636 
4 34163.1 
8 30825 
12 23089.7 
16 18974.4 
20 11402.1 
24 7116.18 
28 3268.96 
32 1569.38 
36 802.618 
40 497.152 
44 345.473 
48 423.267 
