ITEM: TIMESTEP
112000
ITEM: NUMBER OF SURFS
50
ITEM: BOX BOUNDS oo ro pp
-0.2 0.65
0 0.4
-0.5 0.5
ITEM: SURFS id f_88[*] 
1 36556.2 
5 33600.8 
9 29374.5 
13 22412 
17 17459.4 
21 10337.4 
25 5895.26 
29 2835.2 
33 1356.84 
37 753.501 
41 358.12 
45 432.576 
49 630.92 
2 36248.9 
6 32711.6 
10 26920.5 
14 18457.4 
18 14819.6 
22 8661.47 
26 4908.04 
30 2594.28 
34 1310.52 
38 532.354 
42 368.242 
46 415.975 
50 515.628 
3 34703.2 
7 31835 
11 24681.6 
15 18236.1 
19 12465 
23 8025.24 
27 4468.08 
31 2463.74 
35 1180.6 
39 502.403 
43 336.364 
47 521.025 
4 34010.4 
8 30146.7 
12 22930.2 
16 17858.2 
20 11974.5 
24 6821.99 
28 3268.58 
32 1665.54 
36 885.345 
40 435.158 
44 469.228 
48 696.165 
