ITEM: TIMESTEP
137000
ITEM: NUMBER OF SURFS
50
ITEM: BOX BOUNDS oo ro pp
-0.2 0.65
0 0.4
-0.5 0.5
ITEM: SURFS id f_88[*] 
1 35743.8 
5 33150.9 
9 30725.3 
13 23445.7 
17 16446.2 
21 9744.14 
25 5661.4 
29 3127.11 
33 1487.92 
37 853.184 
41 369.428 
45 475.573 
49 552.709 
2 36998.3 
6 33969.2 
10 27667.8 
14 19346.3 
18 14993.3 
22 8725.93 
26 5017.8 
30 2567.24 
34 1477.47 
38 598.445 
42 389.097 
46 507.54 
50 636.396 
3 35410 
7 31867.6 
11 25462.2 
15 18632.5 
19 12945.4 
23 7998.46 
27 4827.07 
31 2351.5 
35 1297.42 
39 449.535 
43 436.212 
47 440.615 
4 34323.8 
8 30355.2 
12 22868 
16 19327.2 
20 11591.1 
24 7146.38 
28 3378.44 
32 1764.52 
36 849.841 
40 478.843 
44 453.287 
48 622.709 
