ITEM: TIMESTEP
15000
ITEM: NUMBER OF SURFS
50
ITEM: BOX BOUNDS oo ro pp
-0.2 0.65
0 0.4
-0.5 0.5
ITEM: SURFS id f_88[*] 
1 38000.5 
5 35753.5 
9 30833.4 
13 23814.1 
17 16259.7 
21 11400 
25 5899.33 
29 2958.71 
33 1393.6 
37 529.047 
41 165.039 
45 4.01351 
49 0 
2 37664.1 
6 35498 
10 28228.3 
14 21451.9 
18 13873 
22 9658.68 
26 5330.75 
30 2483.93 
34 1104.57 
38 516.589 
42 98.4544 
46 7.67648 
50 0 
3 39021.6 
7 34348.7 
11 25970.4 
15 19076.6 
19 11897.9 
23 7834.63 
27 4626.37 
31 2134.31 
35 1061.53 
39 344.635 
43 13.4093 
47 3.34653 
4 37843.8 
8 32414.5 
12 24766.7 
16 18108 
20 11695.7 
24 6549.57 
28 3808.26 
32 1829.21 
36 697.997 
40 190.652 
44 55.8969 
48 0 
