ITEM: TIMESTEP
222000
ITEM: NUMBER OF SURFS
50
ITEM: BOX BOUNDS oo ro pp
-0.2 0.65
0 0.4
-0.5 0.5
ITEM: SURFS id f_88[*] 
1 35789.4 
5 33210.3 
9 27279.6 
13 22434.3 
17 16387.2 
21 9899.76 
25 5893.3 
29 2674.95 
33 1446.04 
37 741.702 
41 391.829 
45 473.641 
49 589.872 
2 35053.5 
6 32232.5 
10 26658.8 
14 19367.2 
18 14686.1 
22 8836.1 
26 4737.06 
30 2856.25 
34 1513.7 
38 595.726 
42 447.697 
46 545.92 
50 594.713 
3 35173.9 
7 31363.1 
11 24764.3 
15 17557.7 
19 12264.6 
23 7835.89 
27 4300.92 
31 2342.49 
35 1023.67 
39 453.793 
43 555.201 
47 531.91 
4 34558.8 
8 30199.5 
12 22386.6 
16 18847.1 
20 11661.6 
24 6302.18 
28 3173.62 
32 1792.15 
36 982.05 
40 404.718 
44 502.644 
48 569.769 
