ITEM: TIMESTEP
68000
ITEM: NUMBER OF SURFS
50
ITEM: BOX BOUNDS oo ro pp
-0.2 0.65
0 0.4
-0.5 0.5
ITEM: SURFS id f_88[*] 
1 34704.1 
5 33010.7 
9 29038.9 
13 21717.9 
17 16511 
21 10320 
25 6149.5 
29 2835.58 
33 1520.66 
37 835.379 
41 314.358 
45 389.125 
49 615.152 
2 36068.8 
6 32893.2 
10 26879.6 
14 20390.8 
18 14706.3 
22 8637.4 
26 4760.88 
30 2413.92 
34 1321.64 
38 536.759 
42 453.815 
46 474.748 
50 583.662 
3 35467.2 
7 33057.4 
11 24771 
15 18726.9 
19 12231.6 
23 8028.43 
27 4282.02 
31 2430.36 
35 1110.5 
39 434.782 
43 362.984 
47 545.732 
4 33623.9 
8 30019.4 
12 22906.2 
16 17596.9 
20 11343 
24 6500.46 
28 3859.1 
32 1739.01 
36 935.85 
40 377.545 
44 439.333 
48 610.528 
