ITEM: TIMESTEP
228000
ITEM: NUMBER OF SURFS
50
ITEM: BOX BOUNDS oo ro pp
-0.2 0.65
0 0.4
-0.5 0.5
ITEM: SURFS id f_88[*] 
1 35787.5 
5 33152 
9 28617.9 
13 21877.6 
17 16391.1 
21 9682.87 
25 5747.69 
29 2807.87 
33 1611.56 
37 855.031 
41 458.647 
45 504.432 
49 639.124 
2 36965.8 
6 32088.5 
10 26857.4 
14 19075.4 
18 14718.3 
22 8894.18 
26 5116.57 
30 2567.77 
34 1456.26 
38 601.014 
42 384.051 
46 580.801 
50 649.858 
3 36170.9 
7 30861.7 
11 24512.8 
15 19438 
19 12055.5 
23 7849.88 
27 4726.56 
31 2370.24 
35 1152.96 
39 441.055 
43 450.006 
47 503.967 
4 34527.3 
8 29408.3 
12 23004.7 
16 18733.6 
20 11408.5 
24 6703.98 
28 3517.31 
32 1625.54 
36 1007.65 
40 458.929 
44 437.566 
48 629.154 
