ITEM: TIMESTEP
133000
ITEM: NUMBER OF SURFS
50
ITEM: BOX BOUNDS oo ro pp
-0.2 0.65
0 0.4
-0.5 0.5
ITEM: SURFS id f_88[*] 
1 35211.2 
5 33581.8 
9 28638.6 
13 22701.3 
17 16557.1 
21 9785.53 
25 5577.42 
29 3007.21 
33 1767.99 
37 779.696 
41 367.846 
45 566.898 
49 558.104 
2 36505.1 
6 33115.1 
10 26733.2 
14 19954.5 
18 14773.4 
22 9072.87 
26 4697.03 
30 2394.25 
34 1543.61 
38 460.954 
42 450.098 
46 495.425 
50 707.587 
3 35248.5 
7 32361.6 
11 24750.2 
15 18670.1 
19 12115.1 
23 7527.85 
27 4596.13 
31 2394.22 
35 1114.33 
39 468.872 
43 378.521 
47 563.64 
4 33851.3 
8 30761.5 
12 23464.1 
16 18550.7 
20 12429.3 
24 6565.9 
28 3631.16 
32 1685.71 
36 820.129 
40 391.047 
44 425.632 
48 579.772 
