ITEM: TIMESTEP
124000
ITEM: NUMBER OF SURFS
50
ITEM: BOX BOUNDS oo ro pp
-0.2 0.65
0 0.4
-0.5 0.5
ITEM: SURFS id f_88[*] 
1 35163.7 
5 34867.6 
9 28962.4 
13 21850.8 
17 16971.7 
21 10299.1 
25 5395.65 
29 3010.77 
33 1722.41 
37 665.196 
41 413.232 
45 425.637 
49 657.524 
2 34819.1 
6 32469.8 
10 27229.3 
14 20528.7 
18 14883.4 
22 8957.43 
26 4924.67 
30 2613.92 
34 1333.21 
38 650.812 
42 370.756 
46 579.644 
50 593.739 
3 34787.9 
7 31626.8 
11 25043.1 
15 18314.9 
19 12794.5 
23 8152.97 
27 4444.65 
31 2352.33 
35 1144.11 
39 541.525 
43 426.744 
47 565.025 
4 35137.4 
8 30438.7 
12 22768.7 
16 19114.8 
20 11354.5 
24 6669.82 
28 3119.4 
32 1805 
36 963.309 
40 507.779 
44 469.484 
48 465.451 
