ITEM: TIMESTEP
205000
ITEM: NUMBER OF SURFS
50
ITEM: BOX BOUNDS oo ro pp
-0.2 0.65
0 0.4
-0.5 0.5
ITEM: SURFS id f_88[*] 
1 36801.4 
5 33145.6 
9 28742.8 
13 21916.7 
17 15721.6 
21 10357.1 
25 5515.44 
29 2890.21 
33 1647.94 
37 748.75 
41 400.972 
45 464.062 
49 625.141 
2 35907.8 
6 31856.6 
10 26145.1 
14 19362.9 
18 14941.7 
22 8921.53 
26 4621.56 
30 2483.92 
34 1316.8 
38 589.071 
42 462.775 
46 522.158 
50 489.232 
3 35321.5 
7 31166.5 
11 24555.2 
15 17913.1 
19 12891 
23 8197.38 
27 4458.13 
31 2503.49 
35 971.808 
39 420.527 
43 433.306 
47 552.031 
4 34643.3 
8 30567.1 
12 22617 
16 18654.9 
20 11777.8 
24 6654.77 
28 3012.12 
32 1575.38 
36 952.854 
40 432.262 
44 470.099 
48 561.925 
