ITEM: TIMESTEP
9000
ITEM: NUMBER OF SURFS
50
ITEM: BOX BOUNDS oo ro pp
-0.2 0.65
0 0.4
-0.5 0.5
ITEM: SURFS id f_88[*] 
1 44898.7 
5 41396.9 
9 35785.1 
13 27133.7 
17 18082.9 
21 11861.1 
25 6489.16 
29 3199.51 
33 1223.89 
37 337.223 
41 55.7301 
45 0 
49 0 
2 45926.6 
6 40920.2 
10 32603.5 
14 24116.9 
18 16106 
22 9752.06 
26 5687.47 
30 2830.46 
34 1004.56 
38 295.673 
42 20.9999 
46 0 
50 0 
3 43170.6 
7 39084.9 
11 30671.8 
15 22029 
19 13790.8 
23 7994.29 
27 4778.49 
31 2086.68 
35 802.504 
39 144.903 
43 19.5768 
47 0 
4 42936.3 
8 37536.9 
12 28379.5 
16 20742 
20 12722.6 
24 7034.69 
28 3888.53 
32 1709.25 
36 566.008 
40 77.0528 
44 0 
48 0 
