ITEM: TIMESTEP
181000
ITEM: NUMBER OF SURFS
50
ITEM: BOX BOUNDS oo ro pp
-0.2 0.65
0 0.4
-0.5 0.5
ITEM: SURFS id f_88[*] 
1 35676.9 
5 32598.3 
9 27863 
13 22457.5 
17 16053.3 
21 10433.1 
25 5790.79 
29 3044.45 
33 1547.1 
37 858.157 
41 432.137 
45 531.558 
49 649.41 
2 37379.6 
6 32244.6 
10 26094.4 
14 19853.1 
18 13970.9 
22 8585.3 
26 4780.58 
30 2454.48 
34 1418.65 
38 510.226 
42 391.169 
46 486.738 
50 638.077 
3 33576.5 
7 32426.8 
11 25322.1 
15 18243 
19 12405.4 
23 7827.47 
27 4409.3 
31 2146.9 
35 1162.77 
39 486.69 
43 387.769 
47 611.921 
4 33311.3 
8 30891.2 
12 23928.6 
16 18888 
20 11321.9 
24 6578.19 
28 3364.31 
32 1768.83 
36 853.015 
40 429.365 
44 498.741 
48 648.415 
