ITEM: TIMESTEP
118000
ITEM: NUMBER OF SURFS
50
ITEM: BOX BOUNDS oo ro pp
-0.2 0.65
0 0.4
-0.5 0.5
ITEM: SURFS id f_88[*] 
1 35485 
5 33907.8 
9 28932.7 
13 23134 
17 16527.7 
21 10441.8 
25 5590.27 
29 2946.14 
33 1526.79 
37 829.387 
41 360.301 
45 472.696 
49 621.825 
2 37807.7 
6 33546.2 
10 26622.9 
14 19323.1 
18 14833.7 
22 8746.41 
26 5144.29 
30 2556.33 
34 1447.87 
38 621.751 
42 306.736 
46 593.637 
50 659.978 
3 34823.6 
7 31715.5 
11 24327.6 
15 17239.4 
19 12707.8 
23 8083.83 
27 4460.64 
31 2374.48 
35 1267.02 
39 525.089 
43 450.72 
47 561.162 
4 35639 
8 30326.5 
12 23238.5 
16 18802.9 
20 11997 
24 6937.27 
28 3616.05 
32 1687.57 
36 794.667 
40 491.47 
44 504.243 
48 511.552 
