ITEM: TIMESTEP
81000
ITEM: NUMBER OF SURFS
50
ITEM: BOX BOUNDS oo ro pp
-0.2 0.65
0 0.4
-0.5 0.5
ITEM: SURFS id f_88[*] 
1 35746.2 
5 33852.9 
9 29446.3 
13 22895.7 
17 16539 
21 10394.8 
25 5777.97 
29 3025.67 
33 1459.29 
37 771.38 
41 418.884 
45 465.345 
49 687.283 
2 36439.2 
6 33325.6 
10 26929.7 
14 19435.4 
18 14541.6 
22 9349.63 
26 4817.79 
30 2529.62 
34 1474.44 
38 689.15 
42 329.596 
46 588.434 
50 529.745 
3 37114.1 
7 30765 
11 25374.6 
15 17608.2 
19 12697.5 
23 7776.32 
27 4147.53 
31 2458.47 
35 1095.64 
39 531.324 
43 357.223 
47 486.742 
4 35931.2 
8 29929.7 
12 23180 
16 18369.8 
20 12204.8 
24 6830.57 
28 3410.81 
32 1697.45 
36 873.603 
40 409.392 
44 455.982 
48 556.326 
