ITEM: TIMESTEP
18000
ITEM: NUMBER OF SURFS
50
ITEM: BOX BOUNDS oo ro pp
-0.2 0.65
0 0.4
-0.5 0.5
ITEM: SURFS id f_88[*] 
1 36386.5 
5 34559.1 
9 29403 
13 22603.6 
17 16641.7 
21 9995.83 
25 6323.08 
29 3168.18 
33 1399.07 
37 609.269 
41 203.832 
45 43.2984 
49 0 
2 36942.1 
6 33405.4 
10 27864.5 
14 19756.1 
18 14575.4 
22 9016.25 
26 5315.99 
30 2363.98 
34 1420.25 
38 537.156 
42 140.869 
46 17.4508 
50 0 
3 36021.7 
7 32818.2 
11 25475.6 
15 17399.2 
19 12693.8 
23 7989.42 
27 4835.48 
31 2433.2 
35 994.767 
39 380.517 
43 96.2562 
47 20.2076 
4 34426.4 
8 31581.5 
12 23884.9 
16 19529.2 
20 12344.3 
24 6894.94 
28 3415.97 
32 1845.41 
36 760.729 
40 300.427 
44 66.6744 
48 2.50243 
