ITEM: TIMESTEP
74000
ITEM: NUMBER OF SURFS
50
ITEM: BOX BOUNDS oo ro pp
-0.2 0.65
0 0.4
-0.5 0.5
ITEM: SURFS id f_88[*] 
1 36276.4 
5 33808 
9 28876.7 
13 22541.3 
17 16255.9 
21 9393.21 
25 5604.87 
29 3038.63 
33 1488.23 
37 771.214 
41 420.496 
45 415.211 
49 578.621 
2 34808.6 
6 32499 
10 27101.2 
14 19512.4 
18 14695.7 
22 7762.01 
26 4839.83 
30 2774.13 
34 1508.23 
38 633.862 
42 336.127 
46 487.914 
50 593.759 
3 34985.2 
7 31691.1 
11 25163.3 
15 17386.1 
19 12285.4 
23 7967.16 
27 4463.23 
31 2328.88 
35 1349.24 
39 420.099 
43 364.739 
47 588.77 
4 33888.5 
8 30271.2 
12 24129.1 
16 18598.8 
20 11685.5 
24 6434.15 
28 3682.34 
32 1739.6 
36 947.32 
40 552.84 
44 380.492 
48 566.068 
