ITEM: TIMESTEP
88000
ITEM: NUMBER OF SURFS
50
ITEM: BOX BOUNDS oo ro pp
-0.2 0.65
0 0.4
-0.5 0.5
ITEM: SURFS id f_88[*] 
1 35285.3 
5 34047.7 
9 28832.6 
13 22416.5 
17 16135.3 
21 10335.6 
25 5893.67 
29 2939.82 
33 1472.47 
37 732.108 
41 502.157 
45 533.631 
49 634.674 
2 35475.2 
6 32072.3 
10 26297.3 
14 18930.7 
18 14923.2 
22 9282.4 
26 5126.78 
30 2476.09 
34 1400.56 
38 581.576 
42 396.505 
46 451.612 
50 623.102 
3 35859.2 
7 32386.3 
11 25884.3 
15 18031.8 
19 12408.5 
23 7849.67 
27 4578.26 
31 2506.07 
35 1158.96 
39 570.374 
43 418.341 
47 533.726 
4 33883.9 
8 30600.5 
12 23593.2 
16 19024.8 
20 11851.9 
24 6312.73 
28 3676.59 
32 1744.44 
36 897.052 
40 424.932 
44 374.388 
48 511.572 
