ITEM: TIMESTEP
103000
ITEM: NUMBER OF SURFS
50
ITEM: BOX BOUNDS oo ro pp
-0.2 0.65
0 0.4
-0.5 0.5
ITEM: SURFS id f_88[*] 
1 35962 
5 34010.6 
9 29416 
13 22189.5 
17 17344.4 
21 9643.96 
25 5856.97 
29 2953.15 
33 1375.09 
37 889.223 
41 432.076 
45 510.269 
49 624.24 
2 34886.2 
6 33941.7 
10 26727.6 
14 19675.7 
18 15516.7 
22 8616.09 
26 4868.65 
30 2562.17 
34 1677.47 
38 677.306 
42 363.261 
46 452.525 
50 654.752 
3 36024.4 
7 32090.5 
11 26778.3 
15 17211.2 
19 12763.6 
23 7451.94 
27 4495.65 
31 2293.72 
35 1133.13 
39 485.509 
43 381.466 
47 563.865 
4 34889.1 
8 31007.1 
12 23568.3 
16 18573.6 
20 11535.8 
24 6568.88 
28 3741.76 
32 1785.99 
36 1060.34 
40 461.119 
44 455.444 
48 545.876 
