ITEM: TIMESTEP
184000
ITEM: NUMBER OF SURFS
50
ITEM: BOX BOUNDS oo ro pp
-0.2 0.65
0 0.4
-0.5 0.5
ITEM: SURFS id f_88[*] 
1 36186.4 
5 33071.5 
9 29107.7 
13 21598.6 
17 16704.3 
21 9524.2 
25 5464.36 
29 2790.82 
33 1600.33 
37 792.915 
41 401.388 
45 458.813 
49 606.714 
2 35657.9 
6 33167.4 
10 27000.2 
14 19398.4 
18 14991.7 
22 8372.82 
26 5053.11 
30 2272.85 
34 1446.76 
38 653.277 
42 445.462 
46 496.87 
50 595.058 
3 34526.5 
7 30596.1 
11 24866.5 
15 17930.7 
19 12185.7 
23 7641.87 
27 4718.05 
31 2362.61 
35 1141.84 
39 465.333 
43 323.004 
47 573.281 
4 33316.7 
8 28133.1 
12 23660.6 
16 18670.8 
20 11001.3 
24 6801.76 
28 3564.47 
32 1684.55 
36 928.069 
40 501.532 
44 489.934 
48 655.475 
