ITEM: TIMESTEP
128000
ITEM: NUMBER OF SURFS
50
ITEM: BOX BOUNDS oo ro pp
-0.2 0.65
0 0.4
-0.5 0.5
ITEM: SURFS id f_88[*] 
1 36317.8 
5 33061.7 
9 29683 
13 23160.3 
17 16118.2 
21 10006.1 
25 5961.74 
29 3161.28 
33 1599.04 
37 751.657 
41 335.008 
45 416.951 
49 584.148 
2 36813.1 
6 33131.9 
10 26068.8 
14 19459.6 
18 14293.7 
22 9243.67 
26 4725.27 
30 2721.86 
34 1465.5 
38 610.854 
42 336.674 
46 494.843 
50 595.827 
3 35466.1 
7 31412.1 
11 24880.8 
15 18497.2 
19 12880.8 
23 8029.55 
27 4629.66 
31 2636.6 
35 1224.62 
39 526.248 
43 358.084 
47 516.445 
4 35029.9 
8 30546.5 
12 23591.1 
16 19506.9 
20 11673.6 
24 6359.63 
28 3286.46 
32 1609.62 
36 886.752 
40 463.448 
44 403.743 
48 557.209 
