ITEM: TIMESTEP
152000
ITEM: NUMBER OF SURFS
50
ITEM: BOX BOUNDS oo ro pp
-0.2 0.65
0 0.4
-0.5 0.5
ITEM: SURFS id f_88[*] 
1 33883.2 
5 33244.2 
9 28950.9 
13 21797.9 
17 16271.9 
21 9923.62 
25 5925.96 
29 3025.03 
33 1307.29 
37 780.252 
41 413.918 
45 400.719 
49 562.609 
2 33900.4 
6 32512.4 
10 25979.5 
14 18878.8 
18 14433.9 
22 8726.88 
26 4801.48 
30 2664.47 
34 1484.18 
38 651.573 
42 354.277 
46 469.719 
50 558.167 
3 34216.5 
7 32025.9 
11 23944.7 
15 17755 
19 12357.7 
23 7473.86 
27 4334.32 
31 2327.08 
35 1388.26 
39 483.328 
43 403.359 
47 520.671 
4 33121.3 
8 30655.6 
12 23121.2 
16 18632.9 
20 11752 
24 6600.52 
28 3403.25 
32 1709.93 
36 952.608 
40 505.223 
44 499.496 
48 518.983 
