ITEM: TIMESTEP
26000
ITEM: NUMBER OF SURFS
50
ITEM: BOX BOUNDS oo ro pp
-0.2 0.65
0 0.4
-0.5 0.5
ITEM: SURFS id f_88[*] 
1 35225.3 
5 34725.3 
9 29376.2 
13 22964.5 
17 16826.9 
21 9975.17 
25 5752.04 
29 3049.35 
33 1598.89 
37 775.83 
41 230.047 
45 145.747 
49 128.585 
2 38196 
6 33232.5 
10 28646.6 
14 20947.1 
18 15020.3 
22 9034.9 
26 4916.36 
30 2689.84 
34 1430.21 
38 573.334 
42 249.696 
46 117.53 
50 110.268 
3 36691 
7 31751.8 
11 26490.8 
15 17698.6 
19 12965.5 
23 8072.07 
27 4635.2 
31 2338.2 
35 1360.51 
39 358.874 
43 180.538 
47 130.22 
4 33596.6 
8 30603.9 
12 23333 
16 18631.6 
20 11872.1 
24 6661.59 
28 3697.44 
32 1564.48 
36 1041.51 
40 397.105 
44 198.62 
48 119.315 
