ITEM: TIMESTEP
231000
ITEM: NUMBER OF SURFS
50
ITEM: BOX BOUNDS oo ro pp
-0.2 0.65
0 0.4
-0.5 0.5
ITEM: SURFS id f_88[*] 
1 33970.2 
5 33475.5 
9 28234.4 
13 22426.3 
17 16073.5 
21 10069.9 
25 5727.55 
29 2899.42 
33 1473.04 
37 832.038 
41 408.316 
45 516.884 
49 591.31 
2 33831.5 
6 33154.4 
10 26395 
14 19990.5 
18 14414.7 
22 8387.31 
26 5121.82 
30 2636.34 
34 1571.42 
38 614.209 
42 436.217 
46 442.155 
50 605.033 
3 35013.2 
7 31413.9 
11 25095.9 
15 17398.7 
19 12127 
23 7805.76 
27 4301.07 
31 2262.79 
35 1130.36 
39 509.182 
43 528.829 
47 549.9 
4 35310 
8 31488.5 
12 22569.8 
16 18846.3 
20 11683.2 
24 6647.4 
28 3432.04 
32 1756.26 
36 844.418 
40 368.675 
44 478.756 
48 610.095 
