ITEM: TIMESTEP
108000
ITEM: NUMBER OF SURFS
50
ITEM: BOX BOUNDS oo ro pp
-0.2 0.65
0 0.4
-0.5 0.5
ITEM: SURFS id f_88[*] 
1 36030 
5 33055.1 
9 29268.8 
13 22356.9 
17 16310.4 
21 10599.8 
25 5850.41 
29 2930.73 
33 1554.45 
37 727.151 
41 410.125 
45 445.129 
49 565.416 
2 36995.1 
6 33936.3 
10 26957.2 
14 19767.4 
18 14573.7 
22 8750.89 
26 4851.55 
30 2737.57 
34 1584.56 
38 606.046 
42 420.519 
46 532.247 
50 609.025 
3 33873.3 
7 31240.3 
11 25904.3 
15 17572 
19 11964.3 
23 7927.81 
27 4628.41 
31 2422.68 
35 1224.41 
39 559.422 
43 482.458 
47 518.684 
4 34572 
8 30144.7 
12 23645.1 
16 18775 
20 11473.9 
24 6841.75 
28 3663.78 
32 1689.53 
36 979.845 
40 417.381 
44 528.333 
48 504.227 
