ITEM: TIMESTEP
280000
ITEM: NUMBER OF SURFS
50
ITEM: BOX BOUNDS oo ro pp
-0.2 0.65
0 0.4
-0.5 0.5
ITEM: SURFS id f_5[1] f_5[2] f_5[3] f_5[4] 
1 174.194 35444.1 0.0209693 0.667253 
5 161.42 33232.4 1.52083 5.23477 
9 132.714 28446.1 4.49504 7.60075 
13 96.5138 22298.1 7.1988 7.19901 
17 61.9529 16335.5 8.17844 4.83618 
21 36.2142 10030 7.47278 2.17096 
25 19.0024 5708.57 5.63093 0.177125 
29 8.96577 2908.91 3.5043 -0.783526 
33 3.74216 1494.37 1.83508 -0.93518 
37 1.46401 747.829 0.750469 -0.661546 
41 0.964995 408.604 0.224559 -0.330393 
45 1.61867 483.121 0.0178863 -0.0496824 
49 2.31414 608.438 -0.00415181 0.0439212 
2 172.823 35820.4 0.177064 1.87314 
6 155.497 32634.1 2.19117 6.08614 
10 123.908 26591.8 5.31349 7.81857 
14 87.4522 19457.6 7.76841 6.84831 
18 54.9849 14500.7 8.06701 4.11082 
22 31.1201 8752.58 7.09029 1.58532 
26 15.9096 4895.99 5.13048 -0.161383 
30 7.3701 2496.64 3.11985 -0.906365 
34 2.80847 1438.16 1.48495 -0.878067 
38 1.184 596.655 0.565579 -0.565579 
42 1.04069 391.829 0.145151 -0.245464 
46 1.85041 523.955 -0.000816417 0.0028102 
50 2.39241 629.01 -0.000579952 0.0184376 
3 170.278 35279.3 0.496856 3.13702 
7 148.573 31232.5 2.92257 6.75365 
11 114.891 25046.3 6.03326 7.77796 
15 77.7927 17913.1 8.269 6.41416 
19 48.363 12303.2 8.13382 3.51954 
23 26.5643 7730.41 6.62754 1.04922 
27 13.1102 4504.88 4.54597 -0.429702 
31 5.79861 2418.5 2.62073 -0.943496 
35 2.25401 1154.96 1.20288 -0.817619 
39 1.01916 499.631 0.430429 -0.48826 
43 1.21154 419.01 0.0894398 -0.175515 
47 2.03433 551.475 -0.00702823 0.0314349 
4 166.405 34554.9 0.942324 4.21569 
8 141.133 29960.5 3.69254 7.24702 
12 105.56 23155 6.66851 7.56398 
16 68.7933 18493.8 8.18545 5.56344 
20 41.7371 11445.6 7.85486 2.82779 
24 22.5036 6559.21 6.11945 0.578433 
28 11.0161 3420.33 3.95381 -0.625937 
32 4.83354 1673.93 2.23362 -0.966454 
36 1.83657 901.305 0.959419 -0.7442 
40 0.932658 439.76 0.311165 -0.401147 
44 1.39333 465.8 0.0514045 -0.118798 
48 2.19948 583.536 -0.00693509 0.0438069 
