ITEM: TIMESTEP
143000
ITEM: NUMBER OF SURFS
50
ITEM: BOX BOUNDS oo ro pp
-0.2 0.65
0 0.4
-0.5 0.5
ITEM: SURFS id f_88[*] 
1 35574.5 
5 35235.5 
9 28123 
13 22199.5 
17 16750.3 
21 10382.4 
25 5817.17 
29 2883.96 
33 1461.96 
37 894.63 
41 475.465 
45 540.551 
49 584.014 
2 36003.3 
6 33495.1 
10 27373.2 
14 19789.3 
18 14459.6 
22 8893.29 
26 4890.5 
30 2372.1 
34 1322.38 
38 664.202 
42 336.98 
46 584.969 
50 599.759 
3 36328.2 
7 31685.5 
11 25443 
15 18064.7 
19 12791 
23 7756.79 
27 4324.33 
31 2437.58 
35 1157.9 
39 421.497 
43 393.265 
47 629.705 
4 35144.5 
8 30086.2 
12 23811.8 
16 18471.9 
20 11761.7 
24 6709.15 
28 3480.26 
32 1596.51 
36 841.349 
40 418.92 
44 407.335 
48 417.078 
