ITEM: TIMESTEP
75000
ITEM: NUMBER OF SURFS
50
ITEM: BOX BOUNDS oo ro pp
-0.2 0.65
0 0.4
-0.5 0.5
ITEM: SURFS id f_88[*] 
1 35497.9 
5 35107 
9 28964.7 
13 22790.8 
17 16352.4 
21 9923.53 
25 5752.48 
29 3013.45 
33 1435.58 
37 680.922 
41 444.455 
45 450.879 
49 552.561 
2 35995.9 
6 33117.8 
10 27175.6 
14 19264.1 
18 14404.4 
22 9069.7 
26 4666.95 
30 2648.06 
34 1551.81 
38 633.46 
42 415.84 
46 492.777 
50 632.825 
3 35236.3 
7 32213.2 
11 25061.2 
15 18137.2 
19 11880.3 
23 7741.1 
27 4563.13 
31 2528.57 
35 1360.34 
39 496.327 
43 448.923 
47 486.548 
4 35184.2 
8 30441.4 
12 23693.8 
16 18096.4 
20 11826.1 
24 6778.58 
28 3420.64 
32 1626.83 
36 847.206 
40 487.371 
44 394.584 
48 603.718 
