ITEM: TIMESTEP
94000
ITEM: NUMBER OF SURFS
50
ITEM: BOX BOUNDS oo ro pp
-0.2 0.65
0 0.4
-0.5 0.5
ITEM: SURFS id f_88[*] 
1 37108 
5 33988.3 
9 29919.6 
13 22206.6 
17 16426.9 
21 10524.1 
25 5505.74 
29 3054.95 
33 1511.21 
37 739.273 
41 391.172 
45 446.025 
49 660.37 
2 35885.9 
6 32666.3 
10 26670 
14 19460.7 
18 14359.5 
22 8666.78 
26 4971.74 
30 2681.56 
34 1584.64 
38 564.638 
42 401.739 
46 468.774 
50 720.078 
3 35339.9 
7 31232.5 
11 24792.8 
15 17828.2 
19 13225.7 
23 7630.68 
27 4318.19 
31 2367.72 
35 1102.94 
39 465.117 
43 345.745 
47 589.272 
4 34312.8 
8 30002.1 
12 24411.1 
16 18489.4 
20 12115.8 
24 6967.27 
28 3289.08 
32 1744.01 
36 1023.5 
40 535.041 
44 474.251 
48 674.564 
