ITEM: TIMESTEP
92000
ITEM: NUMBER OF SURFS
50
ITEM: BOX BOUNDS oo ro pp
-0.2 0.65
0 0.4
-0.5 0.5
ITEM: SURFS id f_88[*] 
1 35233.9 
5 34514.9 
9 28745.8 
13 22518.7 
17 17195.3 
21 10490.2 
25 5916.52 
29 3230.43 
33 1481.24 
37 793.045 
41 345.208 
45 464.461 
49 663.47 
2 35431.6 
6 33506 
10 27207.2 
14 18205.2 
18 14926.8 
22 8984.29 
26 4718.16 
30 2417.2 
34 1395.08 
38 543.813 
42 431.499 
46 538.206 
50 610.191 
3 35552.2 
7 31178 
11 26057.8 
15 18611.5 
19 12629.4 
23 7951.21 
27 4562.18 
31 2455.08 
35 1324.86 
39 428.093 
43 443.579 
47 586.462 
4 34707 
8 30064.4 
12 23680.8 
16 19322.8 
20 11306.7 
24 6354.48 
28 3413.57 
32 1699.93 
36 936.774 
40 455.288 
44 366.83 
48 595.608 
