ITEM: TIMESTEP
301000
ITEM: NUMBER OF SURFS
50
ITEM: BOX BOUNDS oo ro pp
-0.2 0.65
0 0.4
-0.5 0.5
ITEM: SURFS id f_88[*] 
1 36020.2 
5 34003 
9 28628.2 
13 22429.1 
17 16410.4 
21 10279.1 
25 5244.86 
29 2874.2 
33 1680.14 
37 720.473 
41 333.557 
45 470.146 
49 756.283 
2 35119.2 
6 33526.6 
10 26620.8 
14 19369.1 
18 14477.2 
22 8418.13 
26 4879.54 
30 2309.57 
34 1557.38 
38 626.031 
42 327.211 
46 602.186 
50 524.363 
3 34833.7 
7 29897.3 
11 24826.8 
15 18469.8 
19 12357.6 
23 8196.08 
27 4698.15 
31 2391.44 
35 1264.37 
39 516.378 
43 415.006 
47 449.427 
4 32937 
8 29068.9 
12 23364.3 
16 18902.1 
20 11564.2 
24 6602.23 
28 3596.24 
32 1545.3 
36 771.246 
40 482.163 
44 395.062 
48 587.17 
