ITEM: TIMESTEP
30000
ITEM: NUMBER OF SURFS
150
ITEM: BOX BOUNDS oo ro ro
-0.2 0.1524
0 0.2
0 0.2
ITEM: SURFS id f_3[1] f_3[2] 
1 36.7198 23363.1 
9 21.4523 14876.8 
17 24.4934 16794.5 
25 25.4278 17273.7 
33 23.9362 16341 
41 20.6327 14811.2 
49 15.4407 11479.1 
57 14.389 10859.9 
65 11.7427 9308.51 
73 8.41256 7036.99 
81 4.666 4231.9 
89 3.98098 3826.85 
97 2.15605 2250.09 
105 15.667 11521.7 
113 12.3856 10010.8 
121 8.45894 7273.33 
129 6.88837 5697.42 
137 4.29194 4179.59 
145 2.09427 2263.14 
2 36.9191 23618.8 
10 20.9029 14677.8 
18 23.883 16296.5 
26 25.3729 17209.2 
34 24.6235 16849.4 
42 21.3911 14931.7 
50 15.3827 11340.9 
58 13.7559 10203.8 
66 11.5349 9109.21 
74 8.58361 7035.19 
82 5.10086 4518 
90 4.07229 3696.03 
98 2.35193 2390.95 
106 15.2694 11185.5 
114 12.5097 9570.08 
122 8.76728 7358.06 
130 6.80139 5619.55 
138 4.46733 3940.58 
146 2.32207 2452.44 
3 34.4137 22201.1 
11 33.8583 21802 
19 20.7337 14496.4 
27 22.2393 15480 
35 21.7672 15011.9 
43 19.9173 14260.6 
51 17.02 12888.7 
59 13.208 9904.1 
67 10.7611 8779.53 
75 7.96056 6672.26 
83 4.62704 4200.8 
91 1.95854 2014.32 
99 2.18033 2347.87 
107 14.5666 10790.6 
115 11.8437 9104.82 
123 8.29507 7148.25 
131 4.60904 4344.39 
139 4.07609 3736.23 
147 2.18188 2273.69 
4 34.0742 21916.5 
12 34.4919 22200.7 
20 20.1381 14215.1 
28 21.8566 15198.6 
36 22.1546 15322.4 
44 20.3287 14233.4 
52 17.3284 12963.3 
60 12.6415 9523.25 
68 10.5026 8509.01 
76 7.85443 6486.45 
84 5.01342 4491.32 
92 2.24232 2257.23 
100 2.29966 2353.51 
108 14.1131 10330.7 
116 11.7202 8834.01 
124 8.49135 7304.25 
132 5.06053 4679.4 
140 4.15319 3609.39 
148 2.3299 2408.04 
5 30.3401 19933.2 
13 31.9164 20811.3 
21 29.7622 19589.4 
29 19.0807 13797.3 
37 19.5675 13971.8 
45 18.7747 13755.6 
53 16.4739 12466.1 
61 12.9451 10088.5 
69 9.73199 8150.2 
77 7.36613 6335.89 
85 4.55743 4138.86 
93 2.05811 2194.52 
101 16.8573 12498.3 
109 12.924 10146.1 
117 10.6041 8680.34 
125 7.87906 7058.61 
133 4.62196 4354.73 
141 1.94325 2071.78 
149 2.12859 2304.95 
6 29.6077 19779.6 
14 31.8559 20868.1 
22 30.1888 19983.7 
30 18.6365 13404.5 
38 19.5803 13933.3 
46 19.2584 13551 
54 16.4934 12388.8 
62 13.3702 10388.4 
70 9.61597 7468.75 
78 7.26209 6255.65 
86 4.81604 4287.4 
94 2.29719 2334.57 
102 17.3632 12534 
110 12.8418 9585.78 
118 10.5972 8104.3 
126 8.05509 6691.01 
134 4.96396 4568.24 
142 2.2003 2364.33 
150 2.31875 2314.66 
7 25.8067 17484.7 
15 28.3792 18952.2 
23 27.9647 18799.7 
31 24.9635 17066 
39 17.2527 12532.2 
47 16.9258 12202.2 
55 15.8044 11726 
63 12.5917 9665.37 
71 8.54861 7146.04 
79 6.67307 5852.23 
87 4.2669 4108.11 
95 2.03988 2332.36 
103 16.5369 12095.3 
111 12.6248 10285.1 
119 9.97942 7844.62 
127 7.50355 6271.76 
135 4.5881 4359.23 
143 1.99736 2206.07 
8 25.3038 17187.5 
16 28.0736 18837.1 
24 28.3817 19130.7 
32 25.8809 17633.1 
40 17.1442 12435 
48 17.4126 12431.9 
56 15.1608 11232.2 
64 12.5637 9828.72 
72 9.03736 7388.51 
80 6.55419 5631.28 
88 4.50821 4083.86 
96 2.34566 2347.29 
104 16.4021 11863.6 
112 13.1043 10198.9 
120 9.41288 7258.9 
128 7.4013 5963.26 
136 4.64344 4299.57 
144 2.25899 2350.23 
