ITEM: TIMESTEP
30000
ITEM: NUMBER OF SURFS
150
ITEM: BOX BOUNDS oo ro ro
-0.2 0.1524
0 0.2
0 0.2
ITEM: SURFS id f_3[1] f_3[2] 
1 36.7855 24952.4 
9 21.3938 15573 
17 24.4087 17459.2 
25 25.3609 18042.4 
33 23.8286 17177.1 
41 20.7453 15239.9 
49 15.343 11766.5 
57 14.5353 11239.1 
65 11.8538 9403.46 
73 8.49569 7125.68 
81 4.77847 4411.37 
89 4.17632 3961.43 
97 2.15505 2291.17 
105 15.8037 12137.9 
113 12.6271 9992.76 
121 8.63279 7221.83 
129 6.87203 6069.72 
137 4.41977 4126.66 
145 2.16988 2312.18 
2 36.7218 25023 
10 20.7843 15373.4 
18 23.8921 17203.2 
26 25.3747 18172.2 
34 24.3154 17408.9 
42 21.4831 15687.9 
50 15.295 11746.8 
58 13.9781 10905.2 
66 11.841 9495.03 
74 8.77063 7304.92 
82 5.16302 4688.1 
90 4.18651 3786.8 
98 2.31059 2339.98 
106 15.415 11856.2 
114 12.7075 9973.18 
122 9.13112 7555.08 
130 6.77849 5824.08 
138 4.62826 4186.1 
146 2.39132 2433.5 
3 34.5001 23603.1 
11 34.1426 23373.7 
19 20.6765 15203.8 
27 22.2337 16135.5 
35 21.7736 15918.5 
43 20.1323 14867.8 
51 16.9671 12778.4 
59 13.0548 10421.5 
67 10.9894 8829.83 
75 8.06198 6932.63 
83 4.71166 4318.43 
91 1.96763 2110.27 
99 2.15852 2296.78 
107 14.4635 11237.7 
115 11.9478 9644.18 
123 8.44811 7165.69 
131 4.7708 4469.72 
139 4.21687 3973.36 
147 2.2068 2336.85 
4 33.8185 23228 
12 34.3474 23459.3 
20 20.0407 15016.3 
28 22.1576 16133.9 
36 22.3381 16218.8 
44 20.6318 15082.4 
52 17.3515 13041.9 
60 12.5081 9844.02 
68 10.6856 8639.2 
76 8.11326 6731 
84 5.10877 4628.41 
92 2.22936 2257.72 
100 2.3257 2427.67 
108 14.1635 10992.5 
116 11.916 9421.98 
124 8.71216 7213.95 
132 5.15928 4680.59 
140 4.28948 3937.61 
148 2.34053 2326.12 
5 30.1271 20992.5 
13 31.8565 21976 
21 29.5852 20684.2 
29 19.082 14170 
37 19.6765 14607.6 
45 18.68 13941.2 
53 16.5929 12724.2 
61 12.8557 10167.4 
69 9.8225 8085.54 
77 7.49706 6437.57 
85 4.61568 4314.4 
93 2.09328 2256.36 
101 17.0063 12899.7 
109 13.1419 10362 
117 10.812 8758.27 
125 8.00103 6826.53 
133 4.66253 4320.29 
141 1.93098 2071.73 
149 2.15478 2309.8 
6 29.7181 20707.3 
14 32.2082 22296.9 
22 30.3328 21064.2 
30 18.5098 13947.1 
38 19.7161 14467 
46 19.0245 14095 
54 16.5045 12425.4 
62 13.4582 10477.6 
70 9.50621 7768.52 
78 7.41027 6192.21 
86 4.86231 4447.96 
94 2.30498 2360.81 
102 17.1668 12797.7 
110 12.6536 9860.05 
118 10.6554 8652.18 
126 8.04335 6668.54 
134 5.06557 4628.33 
142 2.27027 2304.29 
150 2.30034 2376.81 
7 25.889 18454.4 
15 28.41 20019.8 
23 28.1613 19860.4 
31 25.0329 17921.3 
39 17.3012 13224.9 
47 16.9116 12868 
55 15.7904 12190.5 
63 12.4238 9801.56 
71 8.60624 7209.05 
79 6.86497 6013.27 
87 4.41527 4082.58 
95 2.15041 2245.07 
103 16.4977 12557.6 
111 12.9689 10269.6 
119 9.76332 8001.36 
127 7.54454 6535.8 
135 4.6374 4323.42 
143 2.07268 2231.78 
8 24.9952 17841.6 
16 28.0921 19771.9 
24 28.4464 19977.1 
32 25.779 18426 
40 16.9824 12908.7 
48 17.3224 13117.7 
56 15.3619 11696 
64 12.8165 10079.8 
72 9.0191 7496.88 
80 6.70246 5723.19 
88 4.63886 4234.42 
96 2.4008 2460.48 
104 16.3482 12380.9 
112 13.342 10358.3 
120 9.56515 7828.86 
128 7.41283 6283.73 
136 4.91665 4497.84 
144 2.28499 2361.37 
